<VTKFile type="UnstructuredGrid" version="1.0" byte_order="LittleEndian" compressor="vtkZLibDataCompressor">
  <UnstructuredGrid>
    <Piece NumberOfPoints="520" NumberOfCells="260">
      <Points>
        <DataArray type="Float32" Name="Points" NumberOfComponents="3" format="ascii">
          -5.0000000000e+00 -2.0000000000e+00 0.0000000000e+00 
          -5.0000000000e+00 -1.8570000000e+00 0.0000000000e+00 
          -5.0000000000e+00 -1.7140000000e+00 0.0000000000e+00 
          -4.7900000000e+00 -2.0000000000e+00 0.0000000000e+00 
          -5.0000000000e+00 -1.5710000000e+00 0.0000000000e+00 
          -5.0000000000e+00 -1.4290000000e+00 0.0000000000e+00 
          -4.5800000000e+00 -2.0000000000e+00 0.0000000000e+00 
          -5.0000000000e+00 -1.2860000000e+00 0.0000000000e+00 
          -5.0000000000e+00 -1.1430000000e+00 0.0000000000e+00 
          -4.4220000000e+00 -2.0000000000e+00 0.0000000000e+00 
          -5.0000000000e+00 -1.0000000000e+00 0.0000000000e+00 
          -5.0000000000e+00 -8.5700000000e-01 0.0000000000e+00 
          -4.2640000000e+00 -2.0000000000e+00 0.0000000000e+00 
          -5.0000000000e+00 -7.1400000000e-01 0.0000000000e+00 
          -4.1060000000e+00 -2.0000000000e+00 0.0000000000e+00 
          -5.0000000000e+00 -5.7100000000e-01 0.0000000000e+00 
          -5.0000000000e+00 -4.2900000000e-01 0.0000000000e+00 
          -3.9480000000e+00 -2.0000000000e+00 0.0000000000e+00 
          -5.0000000000e+00 -2.8600000000e-01 0.0000000000e+00 
          -5.0000000000e+00 -1.4300000000e-01 0.0000000000e+00 
          -3.7900000000e+00 -2.0000000000e+00 0.0000000000e+00 
          -5.0000000000e+00 0.0000000000e+00 0.0000000000e+00 
          -4.9990000000e+00 1.1500000000e-01 0.0000000000e+00 
          -3.6320000000e+00 -2.0000000000e+00 0.0000000000e+00 
          -4.9950000000e+00 2.3100000000e-01 0.0000000000e+00 
          -4.9880000000e+00 3.4600000000e-01 0.0000000000e+00 
          -3.4740000000e+00 -2.0000000000e+00 0.0000000000e+00 
          -4.9790000000e+00 4.6100000000e-01 0.0000000000e+00 
          -4.9670000000e+00 5.7600000000e-01 0.0000000000e+00 
          -3.3160000000e+00 -2.0000000000e+00 0.0000000000e+00 
          -4.9520000000e+00 6.9100000000e-01 0.0000000000e+00 
          -3.1580000000e+00 -2.0000000000e+00 0.0000000000e+00 
          -4.9350000000e+00 8.0500000000e-01 0.0000000000e+00 
          -4.9150000000e+00 9.1900000000e-01 0.0000000000e+00 
          -3.0000000000e+00 -2.0000000000e+00 0.0000000000e+00 
          -4.8920000000e+00 1.0320000000e+00 0.0000000000e+00 
          -2.9120000000e+00 -2.0000000000e+00 0.0000000000e+00 
          -4.8670000000e+00 1.1450000000e+00 0.0000000000e+00 
          -2.8240000000e+00 -2.0000000000e+00 0.0000000000e+00 
          -4.8390000000e+00 1.2570000000e+00 0.0000000000e+00 
          -2.7350000000e+00 -2.0000000000e+00 0.0000000000e+00 
          -4.8090000000e+00 1.3680000000e+00 0.0000000000e+00 
          -2.6470000000e+00 -2.0000000000e+00 0.0000000000e+00 
          -2.5590000000e+00 -2.0000000000e+00 0.0000000000e+00 
          -4.7760000000e+00 1.4790000000e+00 0.0000000000e+00 
          -2.4710000000e+00 -2.0000000000e+00 0.0000000000e+00 
          -4.7410000000e+00 1.5890000000e+00 0.0000000000e+00 
          -2.3820000000e+00 -2.0000000000e+00 0.0000000000e+00 
          -4.7030000000e+00 1.6980000000e+00 0.0000000000e+00 
          -2.2940000000e+00 -2.0000000000e+00 0.0000000000e+00 
          -4.6630000000e+00 1.8060000000e+00 0.0000000000e+00 
          -2.2060000000e+00 -2.0000000000e+00 0.0000000000e+00 
          -2.1180000000e+00 -2.0000000000e+00 0.0000000000e+00 
          -4.6200000000e+00 1.9130000000e+00 0.0000000000e+00 
          -2.0290000000e+00 -2.0000000000e+00 0.0000000000e+00 
          -4.5740000000e+00 2.0190000000e+00 0.0000000000e+00 
          -1.9410000000e+00 -2.0000000000e+00 0.0000000000e+00 
          -4.5270000000e+00 2.1230000000e+00 0.0000000000e+00 
          -1.8530000000e+00 -2.0000000000e+00 0.0000000000e+00 
          -1.7650000000e+00 -2.0000000000e+00 0.0000000000e+00 
          -4.4770000000e+00 2.2270000000e+00 0.0000000000e+00 
          -1.6760000000e+00 -2.0000000000e+00 0.0000000000e+00 
          -4.4240000000e+00 2.3290000000e+00 0.0000000000e+00 
          -1.5880000000e+00 -2.0000000000e+00 0.0000000000e+00 
          -4.3700000000e+00 2.4300000000e+00 0.0000000000e+00 
          -1.5000000000e+00 -2.0000000000e+00 0.0000000000e+00 
          -1.4120000000e+00 -2.0000000000e+00 0.0000000000e+00 
          -4.3140000000e+00 2.5280000000e+00 0.0000000000e+00 
          -1.3240000000e+00 -2.0000000000e+00 0.0000000000e+00 
          -4.2550000000e+00 2.6260000000e+00 0.0000000000e+00 
          -1.2350000000e+00 -2.0000000000e+00 0.0000000000e+00 
          -4.1950000000e+00 2.7200000000e+00 0.0000000000e+00 
          -1.1470000000e+00 -2.0000000000e+00 0.0000000000e+00 
          -1.0590000000e+00 -2.0000000000e+00 0.0000000000e+00 
          -4.1340000000e+00 2.8130000000e+00 0.0000000000e+00 
          -9.7100000000e-01 -2.0000000000e+00 0.0000000000e+00 
          -4.0720000000e+00 2.9020000000e+00 0.0000000000e+00 
          -8.8200000000e-01 -2.0000000000e+00 0.0000000000e+00 
          -4.0080000000e+00 2.9890000000e+00 0.0000000000e+00 
          -7.9400000000e-01 -2.0000000000e+00 0.0000000000e+00 
          -7.0600000000e-01 -2.0000000000e+00 0.0000000000e+00 
          -3.9480000000e+00 3.0680000000e+00 0.0000000000e+00 
          -6.1800000000e-01 -2.0000000000e+00 0.0000000000e+00 
          -3.8860000000e+00 3.1470000000e+00 0.0000000000e+00 
          -5.2900000000e-01 -2.0000000000e+00 0.0000000000e+00 
          -3.8320000000e+00 3.2120000000e+00 0.0000000000e+00 
          -4.4100000000e-01 -2.0000000000e+00 0.0000000000e+00 
          -3.7770000000e+00 3.2770000000e+00 0.0000000000e+00 
          -3.5300000000e-01 -2.0000000000e+00 0.0000000000e+00 
          -3.7220000000e+00 3.3390000000e+00 0.0000000000e+00 
          -2.6500000000e-01 -2.0000000000e+00 0.0000000000e+00 
          -3.6660000000e+00 3.4000000000e+00 0.0000000000e+00 
          -1.7600000000e-01 -2.0000000000e+00 0.0000000000e+00 
          -3.6010000000e+00 3.4690000000e+00 0.0000000000e+00 
          -8.8000000000e-02 -2.0000000000e+00 0.0000000000e+00 
          -3.5360000000e+00 3.5360000000e+00 0.0000000000e+00 
          0.0000000000e+00 -2.0000000000e+00 0.0000000000e+00 
          8.8000000000e-02 -2.0000000000e+00 0.0000000000e+00 
          -3.4530000000e+00 3.6160000000e+00 0.0000000000e+00 
          1.7600000000e-01 -2.0000000000e+00 0.0000000000e+00 
          -3.3680000000e+00 3.6950000000e+00 0.0000000000e+00 
          2.6500000000e-01 -2.0000000000e+00 0.0000000000e+00 
          3.5300000000e-01 -2.0000000000e+00 0.0000000000e+00 
          -3.2820000000e+00 3.7720000000e+00 0.0000000000e+00 
          4.4100000000e-01 -2.0000000000e+00 0.0000000000e+00 
          -3.1940000000e+00 3.8470000000e+00 0.0000000000e+00 
          5.2900000000e-01 -2.0000000000e+00 0.0000000000e+00 
          6.1800000000e-01 -2.0000000000e+00 0.0000000000e+00 
          -3.1050000000e+00 3.9190000000e+00 0.0000000000e+00 
          7.0600000000e-01 -2.0000000000e+00 0.0000000000e+00 
          -3.0130000000e+00 3.9900000000e+00 0.0000000000e+00 
          7.9400000000e-01 -2.0000000000e+00 0.0000000000e+00 
          8.8200000000e-01 -2.0000000000e+00 0.0000000000e+00 
          -2.9200000000e+00 4.0590000000e+00 0.0000000000e+00 
          9.7100000000e-01 -2.0000000000e+00 0.0000000000e+00 
          -2.8260000000e+00 4.1250000000e+00 0.0000000000e+00 
          1.0590000000e+00 -2.0000000000e+00 0.0000000000e+00 
          1.1470000000e+00 -2.0000000000e+00 0.0000000000e+00 
          -2.7300000000e+00 4.1890000000e+00 0.0000000000e+00 
          1.2350000000e+00 -2.0000000000e+00 0.0000000000e+00 
          -2.6320000000e+00 4.2510000000e+00 0.0000000000e+00 
          1.3240000000e+00 -2.0000000000e+00 0.0000000000e+00 
          1.4120000000e+00 -2.0000000000e+00 0.0000000000e+00 
          -2.5330000000e+00 4.3110000000e+00 0.0000000000e+00 
          1.5000000000e+00 -2.0000000000e+00 0.0000000000e+00 
          -2.4330000000e+00 4.3680000000e+00 0.0000000000e+00 
          1.5880000000e+00 -2.0000000000e+00 0.0000000000e+00 
          1.6760000000e+00 -2.0000000000e+00 0.0000000000e+00 
          -2.3320000000e+00 4.4230000000e+00 0.0000000000e+00 
          1.7650000000e+00 -2.0000000000e+00 0.0000000000e+00 
          -2.2290000000e+00 4.4760000000e+00 0.0000000000e+00 
          1.8530000000e+00 -2.0000000000e+00 0.0000000000e+00 
          1.9410000000e+00 -2.0000000000e+00 0.0000000000e+00 
          -2.1250000000e+00 4.5260000000e+00 0.0000000000e+00 
          2.0290000000e+00 -2.0000000000e+00 0.0000000000e+00 
          -2.0200000000e+00 4.5740000000e+00 0.0000000000e+00 
          2.1180000000e+00 -2.0000000000e+00 0.0000000000e+00 
          2.2060000000e+00 -2.0000000000e+00 0.0000000000e+00 
          -1.9130000000e+00 4.6190000000e+00 0.0000000000e+00 
          2.2940000000e+00 -2.0000000000e+00 0.0000000000e+00 
          -1.8060000000e+00 4.6620000000e+00 0.0000000000e+00 
          2.3820000000e+00 -2.0000000000e+00 0.0000000000e+00 
          2.4710000000e+00 -2.0000000000e+00 0.0000000000e+00 
          -1.6980000000e+00 4.7030000000e+00 0.0000000000e+00 
          2.5590000000e+00 -2.0000000000e+00 0.0000000000e+00 
          -1.5890000000e+00 4.7410000000e+00 0.0000000000e+00 
          2.6470000000e+00 -2.0000000000e+00 0.0000000000e+00 
          -1.4790000000e+00 4.7760000000e+00 0.0000000000e+00 
          2.7350000000e+00 -2.0000000000e+00 0.0000000000e+00 
          2.8240000000e+00 -2.0000000000e+00 0.0000000000e+00 
          -1.3680000000e+00 4.8090000000e+00 0.0000000000e+00 
          2.9120000000e+00 -2.0000000000e+00 0.0000000000e+00 
          -1.2570000000e+00 4.8390000000e+00 0.0000000000e+00 
[...]
      <PointData>
        <DataArray type="Int32" Name="NodeTag" format="ascii">
          110374
          110426
          110478
          110496
          110534
          110587
          110622
          110641
          110698
          110721
          110755
          110822
          110836
          110881
          110933
          110937
          110996
          111042
          111076
          111138
          111155
          111193
          111246
          111260
          111291
          111361
          111374
          111421
          111479
          111485
          111537
          111593
          111607
          111676
          111711
          111734
          111773
          111817
          111840
          111893
          111907
          111977
          111978
          112049
          112063
          112115
          112142
          112184
          112227
          112256
          112319
          112328
          112396
          112402
          112478
          112501
          112551
          112591
          112618
          112696
          112698
          112773
          112791
          112848
          112897
          112929
          113010
          113015
          113091
          113122
          113179
          113250
          113267
          113351
          113360
          113444
          113481
          113544
          113621
          113643
          113734
          113744
          113837
          113864
          113931
          113976
          114039
          114079
          114145
          114208
          114268
          114327
          114373
          114461
          114490
          114593
          114599
          114703
          114754
          114827
          114929
          114936
          115055
          115098
          115162
          115252
          115264
          115388
          115426
          115487
          115599
          115611
          115717
          115764
          115834
          115924
          115935
          116050
          116090
          116152
          116249
          116267
          116372
          116416
          116485
          116575
          116601
          116699
          116729
          116809
          116887
          116913
          117029
          117056
          117138
          117213
          117256
          117364
          117382
          117465
          117526
          117573
          117677
          117685
          117798
          117845
          117906
          117992
          118011
          118109
          118144
          118217
          118282
          118318
          118427
          118508
          118565
          118692
          118705
          118837
          118863
          118966
          119047
          119099
          119227
          119229
          119352
          119401
          119477
          119568
          119586
          119715
          119754
          119830
          119920
          119937
          120039
          120082
          120141
          120255
          120307
          120354
          120450
          120519
          120550
          120594
          120631
          120663
          120722
          120733
          120811
          120814
          120893
          120902
          120971
          120985
          121051
          121065
          121120
          121147
          121192
          121218
          121269
          121285
          121348
          121365
          121423
          121435
          121499
          121500
          121564
          121574
          121618
          121633
          121675
          121684
          121728
          121743
          121772
          121786
          121823
          121828
          121871
          121890
          121919
          121924
          121959
          121967
          121998
          122006
          122030
          122034
          122062
          122066
          122090
          122093
          122119
          122121
          122137
          122139
          122159
          122163
          122178
          122182
          122187
          122195
          122198
          122209
          122210
          122217
          122218
          122222
          122224
          122231
          122233
          122235
          122237
          122241
          122244
          122246
          510374
          510426
          510478
          510496
          510534
          510587
          510622
          510641
          510698
          510721
          510755
          510822
          510836
          510881
          510933
          510937
          510996
          511042
          511076
          511138
          511155
          511193
          511246
          511260
          511291
          511361
          511374
          511421
          511479
          511485
          511537
          511593
          511607
          511676
          511711
          511734
          511773
          511817
          511840
          511893
          511907
          511977
          511978
          512049
          512063
          512115
          512142
          512184
          512227
          512256
          512319
          512328
          512396
          512402
          512478
          512501
          512551
          512591
          512618
          512696
          512698
          512773
          512791
          512848
          512897
          512929
          513010
          513015
          513091
          513122
          513179
          513250
          513267
          513351
          513360
          513444
          513481
          513544
          513621
          513643
          513734
          513744
          513837
          513864
          513931
          513976
          514039
          514079
          514145
          514208
          514268
          514327
          514373
          514461
          514490
          514593
          514599
          514703
          514754
          514827
          514929
          514936
          515055
          515098
          515162
          515252
          515264
          515388
          515426
          515487
          515599
          515611
          515717
          515764
          515834
          515924
          515935
          516050
          516090
          516152
          516249
          516267
          516372
          516416
          516485
          516575
          516601
          516699
          516729
          516809
          516887
          516913
          517029
          517056
          517138
          517213
          517256
          517364
          517382
          517465
          517526
          517573
          517677
          517685
          517798
          517845
          517906
          517992
          518011
          518109
          518144
          518217
          518282
          518318
          518427
          518508
          518565
          518692
          518705
          518837
          518863
          518966
          519047
          519099
          519227
          519229
          519352
          519401
          519477
          519568
          519586
          519715
          519754
          519830
          519920
          519937
          520039
          520082
          520141
          520255
          520307
          520354
          520450
          520519
          520550
          520594
          520631
          520663
          520722
          520733
          520811
          520814
          520893
          520902
          520971
          520985
          521051
          521065
          521120
          521147
          521192
          521218
          521269
          521285
          521348
          521365
          521423
          521435
          521499
          521500
          521564
          521574
          521618
          521633
          521675
          521684
          521728
          521743
          521772
          521786
          521823
          521828
          521871
          521890
          521919
          521924
          521959
          521967
          521998
          522006
          522030
          522034
          522062
          522066
          522090
          522093
          522119
          522121
          522137
          522139
          522159
          522163
          522178
          522182
          522187
          522195
          522198
          522209
          522210
          522217
          522218
          522222
          522224
          522231
          522233
          522235
          522237
          522241
          522244
          522246
        </DataArray>
        <DataArray type="Float32" Name="Displacement" NumberOfComponents="3" format="ascii">
          8.8375644391e-04 -4.3391398767e-02 0.0000000000e+00 
          7.4675491771e-04 -4.3393107108e-02 0.0000000000e+00 
          6.2189174463e-04 -4.3394816307e-02 0.0000000000e+00 
          8.8315218535e-04 -4.3168672874e-02 0.0000000000e+00 
          5.0830683655e-04 -4.3396526315e-02 0.0000000000e+00 
          4.0582455858e-04 -4.3398230904e-02 0.0000000000e+00 
          8.8245065667e-04 -4.2928220537e-02 0.0000000000e+00 
          3.1215145915e-04 -4.3399952069e-02 0.0000000000e+00 
          2.2722062765e-04 -4.3401719256e-02 0.0000000000e+00 
          8.8195724992e-04 -4.2740499555e-02 0.0000000000e+00 
          1.5029986527e-04 -4.3403499156e-02 0.0000000000e+00 
          8.0725579324e-05 -4.3405316896e-02 0.0000000000e+00 
          8.8149313565e-04 -4.2550035785e-02 0.0000000000e+00 
          1.7932535914e-05 -4.3407146069e-02 0.0000000000e+00 
          8.8104264339e-04 -4.2359075897e-02 0.0000000000e+00 
          -3.8567474251e-05 -4.3409008214e-02 0.0000000000e+00 
          -8.8826856218e-05 -4.3410872600e-02 0.0000000000e+00 
          8.8061821290e-04 -4.2169530054e-02 0.0000000000e+00 
          -1.3385757802e-04 -4.3412782311e-02 0.0000000000e+00 
          -1.7348899340e-04 -4.3414711134e-02 0.0000000000e+00 
          8.8020588576e-04 -4.1982951254e-02 0.0000000000e+00 
          -2.0784234007e-04 -4.3416667944e-02 0.0000000000e+00 
          -2.3167379277e-04 -4.3418040511e-02 0.0000000000e+00 
          8.7981580441e-04 -4.1800647120e-02 0.0000000000e+00 
          -2.5230919870e-04 -4.3418957488e-02 0.0000000000e+00 
          -2.6938763442e-04 -4.3419543934e-02 0.0000000000e+00 
          8.7943616530e-04 -4.1623661811e-02 0.0000000000e+00 
          -2.8309590121e-04 -4.3420116032e-02 0.0000000000e+00 
          -2.9345024045e-04 -4.3420693732e-02 0.0000000000e+00 
          8.7907588437e-04 -4.1452857604e-02 0.0000000000e+00 
          -3.0046504729e-04 -4.3421454797e-02 0.0000000000e+00 
          8.7872479157e-04 -4.1288901331e-02 0.0000000000e+00 
          -3.0412867591e-04 -4.3422580684e-02 0.0000000000e+00 
          -3.0455215516e-04 -4.3424194303e-02 0.0000000000e+00 
          8.7839108067e-04 -4.1132325389e-02 0.0000000000e+00 
          -3.0180122135e-04 -4.3426443521e-02 0.0000000000e+00 
          8.7820878687e-04 -4.1048466918e-02 0.0000000000e+00 
          -2.9591772581e-04 -4.3429443831e-02 0.0000000000e+00 
          8.7803243582e-04 -4.0967074656e-02 0.0000000000e+00 
          -2.8704828898e-04 -4.3433363109e-02 0.0000000000e+00 
          8.7785672938e-04 -4.0887309604e-02 0.0000000000e+00 
          -2.7530627487e-04 -4.3438232838e-02 0.0000000000e+00 
          8.7768564526e-04 -4.0810999638e-02 0.0000000000e+00 
          8.7751736858e-04 -4.0737260429e-02 0.0000000000e+00 
          -2.6068128335e-04 -4.3444295654e-02 0.0000000000e+00 
          8.7735361122e-04 -4.0666111905e-02 0.0000000000e+00 
          -2.4338668065e-04 -4.3451506505e-02 0.0000000000e+00 
          8.7718921888e-04 -4.0596803111e-02 0.0000000000e+00 
          -2.2356368403e-04 -4.3460133653e-02 0.0000000000e+00 
          8.7703264397e-04 -4.0530899752e-02 0.0000000000e+00 
          -2.0132979165e-04 -4.3470072396e-02 0.0000000000e+00 
          8.7687652748e-04 -4.0467610047e-02 0.0000000000e+00 
          8.7673451255e-04 -4.0406932187e-02 0.0000000000e+00 
          -1.7683653092e-04 -4.3481640828e-02 0.0000000000e+00 
          8.7659145560e-04 -4.0348217483e-02 0.0000000000e+00 
          -1.5021333440e-04 -4.3494918043e-02 0.0000000000e+00 
          8.7645015448e-04 -4.0292778679e-02 0.0000000000e+00 
          -1.2187241533e-04 -4.3509430060e-02 0.0000000000e+00 
          8.7631546217e-04 -4.0239930520e-02 0.0000000000e+00 
          8.7618375084e-04 -4.0189662966e-02 0.0000000000e+00 
          -9.1420939050e-05 -4.3525789895e-02 0.0000000000e+00 
          8.7605055861e-04 -4.0141435019e-02 0.0000000000e+00 
          -5.9590394951e-05 -4.3544055176e-02 0.0000000000e+00 
          8.7592254352e-04 -4.0096315484e-02 0.0000000000e+00 
          -2.6204597951e-05 -4.3563606670e-02 0.0000000000e+00 
          8.7579465195e-04 -4.0053731905e-02 0.0000000000e+00 
          8.7566708050e-04 -4.0013667585e-02 0.0000000000e+00 
          7.8558962228e-06 -4.3584764003e-02 0.0000000000e+00 
          8.7553948036e-04 -3.9976105361e-02 0.0000000000e+00 
          4.3494900327e-05 -4.3607932784e-02 0.0000000000e+00 
          8.7541054247e-04 -3.9940642980e-02 0.0000000000e+00 
          7.9074350576e-05 -4.3632322354e-02 0.0000000000e+00 
          8.7528304016e-04 -3.9908059708e-02 0.0000000000e+00 
          8.7515552511e-04 -3.9877925854e-02 0.0000000000e+00 
          1.1555970912e-04 -4.3657913926e-02 0.0000000000e+00 
          8.7502799780e-04 -3.9850224750e-02 0.0000000000e+00 
          1.5157096859e-04 -4.3684633594e-02 0.0000000000e+00 
          8.7489900952e-04 -3.9824666818e-02 0.0000000000e+00 
          1.8774665108e-04 -4.3712865580e-02 0.0000000000e+00 
          8.7477145961e-04 -3.9801811106e-02 0.0000000000e+00 
          8.7464389973e-04 -3.9781342506e-02 0.0000000000e+00 
          2.2136455132e-04 -4.3739896806e-02 0.0000000000e+00 
          8.7451633080e-04 -3.9763248072e-02 0.0000000000e+00 
          2.5566392207e-04 -4.3768310125e-02 0.0000000000e+00 
          8.7438730410e-04 -3.9747350774e-02 0.0000000000e+00 
          2.8432592145e-04 -4.3793403188e-02 0.0000000000e+00 
          8.7425972019e-04 -3.9733997554e-02 0.0000000000e+00 
          3.1337719807e-04 -4.3819259498e-02 0.0000000000e+00 
          8.7413213054e-04 -3.9722987542e-02 0.0000000000e+00 
          3.4138777908e-04 -4.3845367677e-02 0.0000000000e+00 
          8.7400453634e-04 -3.9714313681e-02 0.0000000000e+00 
          3.6921479563e-04 -4.3872163071e-02 0.0000000000e+00 
          8.7387548885e-04 -3.9707911694e-02 0.0000000000e+00 
          4.0095783929e-04 -4.3903506635e-02 0.0000000000e+00 
          8.7374788928e-04 -3.9703921777e-02 0.0000000000e+00 
          4.3200437708e-04 -4.3935046148e-02 0.0000000000e+00 
          8.7362028896e-04 -3.9702256710e-02 0.0000000000e+00 
          8.7349268916e-04 -3.9702916434e-02 0.0000000000e+00 
          4.6925446641e-04 -4.3975493245e-02 0.0000000000e+00 
          8.7336509119e-04 -3.9705902495e-02 0.0000000000e+00 
          5.0617649352e-04 -4.4017027237e-02 0.0000000000e+00 
          8.7323604641e-04 -3.9711292255e-02 0.0000000000e+00 
          8.7310845599e-04 -3.9718969784e-02 0.0000000000e+00 
          5.4218538132e-04 -4.4059062939e-02 0.0000000000e+00 
          8.7298087124e-04 -3.9728989486e-02 0.0000000000e+00 
          5.7716891882e-04 -4.4101973707e-02 0.0000000000e+00 
          8.7285329336e-04 -3.9741359963e-02 0.0000000000e+00 
          8.7272427395e-04 -3.9756272649e-02 0.0000000000e+00 
          6.1057667497e-04 -4.4145155112e-02 0.0000000000e+00 
          8.7259671347e-04 -3.9773404346e-02 0.0000000000e+00 
          6.4325540823e-04 -4.4189444305e-02 0.0000000000e+00 
          8.7246916329e-04 -3.9792922610e-02 0.0000000000e+00 
          8.7234162442e-04 -3.9814842075e-02 0.0000000000e+00 
          6.7466838316e-04 -4.4233755278e-02 0.0000000000e+00 
          8.7221264870e-04 -3.9839469234e-02 0.0000000000e+00 
          7.0426193698e-04 -4.4278008667e-02 0.0000000000e+00 
          8.7208513527e-04 -3.9866267771e-02 0.0000000000e+00 
          8.7195763563e-04 -3.9895518583e-02 0.0000000000e+00 
          7.3246164513e-04 -4.4322478524e-02 0.0000000000e+00 
          8.7183015032e-04 -3.9927240269e-02 0.0000000000e+00 
          7.5923699771e-04 -4.4367008785e-02 0.0000000000e+00 
          8.7170123137e-04 -3.9961855168e-02 0.0000000000e+00 
          8.7157377605e-04 -3.9998605063e-02 0.0000000000e+00 
          7.8456304002e-04 -4.4411060580e-02 0.0000000000e+00 
          8.7144502511e-04 -4.0037884755e-02 0.0000000000e+00 
          8.0806580291e-04 -4.4454481501e-02 0.0000000000e+00 
          8.7131610092e-04 -4.0079716283e-02 0.0000000000e+00 
          8.7118499012e-04 -4.0124121945e-02 0.0000000000e+00 
          8.3007794791e-04 -4.4497156695e-02 0.0000000000e+00 
          8.7105251564e-04 -4.0171671953e-02 0.0000000000e+00 
          8.5055743151e-04 -4.4539355490e-02 0.0000000000e+00 
          8.7092117607e-04 -4.0221312032e-02 0.0000000000e+00 
          8.7078809044e-04 -4.0273572856e-02 0.0000000000e+00 
          8.6914287280e-04 -4.4580543268e-02 0.0000000000e+00 
          8.7065445376e-04 -4.0328463598e-02 0.0000000000e+00 
          8.8628048245e-04 -4.4620605301e-02 0.0000000000e+00 
          8.7050498840e-04 -4.0386661674e-02 0.0000000000e+00 
          8.7035642926e-04 -4.0446869998e-02 0.0000000000e+00 
          9.0188244200e-04 -4.4659829838e-02 0.0000000000e+00 
          8.7020667408e-04 -4.0509736214e-02 0.0000000000e+00 
          9.1603609404e-04 -4.4697505726e-02 0.0000000000e+00 
          8.7005366443e-04 -4.0575264425e-02 0.0000000000e+00 
          8.6989590926e-04 -4.0644245936e-02 0.0000000000e+00 
          9.2876769217e-04 -4.4733699044e-02 0.0000000000e+00 
          8.6973758042e-04 -4.0715126425e-02 0.0000000000e+00 
          9.3983963194e-04 -4.4768154642e-02 0.0000000000e+00 
          8.6957466280e-04 -4.0788656203e-02 0.0000000000e+00 
          9.4916526579e-04 -4.4800813255e-02 0.0000000000e+00 
          8.6941030271e-04 -4.0864818543e-02 0.0000000000e+00 
          8.6924045834e-04 -4.0944500547e-02 0.0000000000e+00 
          9.5724902186e-04 -4.4831596821e-02 0.0000000000e+00 
          8.6907171456e-04 -4.1025879723e-02 0.0000000000e+00 
          9.6391530906e-04 -4.4860142248e-02 0.0000000000e+00 
          8.6889598585e-04 -4.1109797335e-02 0.0000000000e+00 
          9.6950737366e-04 -4.4886620466e-02 0.0000000000e+00 
          8.6857451203e-04 -4.1266672744e-02 0.0000000000e+00 
          9.7393095856e-04 -4.4910902369e-02 0.0000000000e+00 
          8.6823625042e-04 -4.1431196258e-02 0.0000000000e+00 
          9.7744374760e-04 -4.4932710916e-02 0.0000000000e+00 
          9.7993581575e-04 -4.4952153790e-02 0.0000000000e+00 
          8.6788912055e-04 -4.1602859651e-02 0.0000000000e+00 
          9.8154387657e-04 -4.4968984701e-02 0.0000000000e+00 
          8.6752342156e-04 -4.1781021382e-02 0.0000000000e+00 
          9.8250817505e-04 -4.4983287106e-02 0.0000000000e+00 
          8.6714768358e-04 -4.1964845965e-02 0.0000000000e+00 
          9.8282648475e-04 -4.4994862129e-02 0.0000000000e+00 
          9.8263433129e-04 -4.5003686910e-02 0.0000000000e+00 
          8.6675051630e-04 -4.2153317208e-02 0.0000000000e+00 
          9.8212568311e-04 -4.5009745450e-02 0.0000000000e+00 
          8.6634162807e-04 -4.2345156699e-02 0.0000000000e+00 
          9.8135732698e-04 -4.5013035403e-02 0.0000000000e+00 
          9.8048877143e-04 -4.5013490407e-02 0.0000000000e+00 
          8.6590753581e-04 -4.2538841314e-02 0.0000000000e+00 