<VTKFile type="UnstructuredGrid" version="1.0" byte_order="LittleEndian" compressor="vtkZLibDataCompressor">
  <UnstructuredGrid>
    <Piece NumberOfPoints="260" NumberOfCells="260">
      <Points>
        <DataArray type="Float32" Name="Points" NumberOfComponents="3" format="ascii">
          -5.0000000000e+00 -2.0000000000e+00 0.0000000000e+00 
          -5.0000000000e+00 -1.8570000000e+00 0.0000000000e+00 
          -5.0000000000e+00 -1.7140000000e+00 0.0000000000e+00 
          -4.7900000000e+00 -2.0000000000e+00 0.0000000000e+00 
          -5.0000000000e+00 -1.5710000000e+00 0.0000000000e+00 
          -5.0000000000e+00 -1.4290000000e+00 0.0000000000e+00 
          -4.5800000000e+00 -2.0000000000e+00 0.0000000000e+00 
          -5.0000000000e+00 -1.2860000000e+00 0.0000000000e+00 
          -5.0000000000e+00 -1.1430000000e+00 0.0000000000e+00 
          -4.4220000000e+00 -2.0000000000e+00 0.0000000000e+00 
          -5.0000000000e+00 -1.0000000000e+00 0.0000000000e+00 
          -5.0000000000e+00 -8.5700000000e-01 0.0000000000e+00 
          -4.2640000000e+00 -2.0000000000e+00 0.0000000000e+00 
          -5.0000000000e+00 -7.1400000000e-01 0.0000000000e+00 
          -4.1060000000e+00 -2.0000000000e+00 0.0000000000e+00 
          -5.0000000000e+00 -5.7100000000e-01 0.0000000000e+00 
          -5.0000000000e+00 -4.2900000000e-01 0.0000000000e+00 
          -3.9480000000e+00 -2.0000000000e+00 0.0000000000e+00 
          -5.0000000000e+00 -2.8600000000e-01 0.0000000000e+00 
          -5.0000000000e+00 -1.4300000000e-01 0.0000000000e+00 
          -3.7900000000e+00 -2.0000000000e+00 0.0000000000e+00 
          -5.0000000000e+00 0.0000000000e+00 0.0000000000e+00 
          -4.9990000000e+00 1.1500000000e-01 0.0000000000e+00 
          -3.6320000000e+00 -2.0000000000e+00 0.0000000000e+00 
          -4.9950000000e+00 2.3100000000e-01 0.0000000000e+00 
          -4.9880000000e+00 3.4600000000e-01 0.0000000000e+00 
          -3.4740000000e+00 -2.0000000000e+00 0.0000000000e+00 
          -4.9790000000e+00 4.6100000000e-01 0.0000000000e+00 
          -4.9670000000e+00 5.7600000000e-01 0.0000000000e+00 
          -3.3160000000e+00 -2.0000000000e+00 0.0000000000e+00 
          -4.9520000000e+00 6.9100000000e-01 0.0000000000e+00 
          -3.1580000000e+00 -2.0000000000e+00 0.0000000000e+00 
          -4.9350000000e+00 8.0500000000e-01 0.0000000000e+00 
          -4.9150000000e+00 9.1900000000e-01 0.0000000000e+00 
          -3.0000000000e+00 -2.0000000000e+00 0.0000000000e+00 
          -4.8920000000e+00 1.0320000000e+00 0.0000000000e+00 
          -2.9120000000e+00 -2.0000000000e+00 0.0000000000e+00 
          -4.8670000000e+00 1.1450000000e+00 0.0000000000e+00 
          -2.8240000000e+00 -2.0000000000e+00 0.0000000000e+00 
          -4.8390000000e+00 1.2570000000e+00 0.0000000000e+00 
          -2.7350000000e+00 -2.0000000000e+00 0.0000000000e+00 
          -4.8090000000e+00 1.3680000000e+00 0.0000000000e+00 
          -2.6470000000e+00 -2.0000000000e+00 0.0000000000e+00 
          -2.5590000000e+00 -2.0000000000e+00 0.0000000000e+00 
          -4.7760000000e+00 1.4790000000e+00 0.0000000000e+00 
          -2.4710000000e+00 -2.0000000000e+00 0.0000000000e+00 
          -4.7410000000e+00 1.5890000000e+00 0.0000000000e+00 
          -2.3820000000e+00 -2.0000000000e+00 0.0000000000e+00 
          -4.7030000000e+00 1.6980000000e+00 0.0000000000e+00 
          -2.2940000000e+00 -2.0000000000e+00 0.0000000000e+00 
          -4.6630000000e+00 1.8060000000e+00 0.0000000000e+00 
          -2.2060000000e+00 -2.0000000000e+00 0.0000000000e+00 
          -2.1180000000e+00 -2.0000000000e+00 0.0000000000e+00 
          -4.6200000000e+00 1.9130000000e+00 0.0000000000e+00 
          -2.0290000000e+00 -2.0000000000e+00 0.0000000000e+00 
          -4.5740000000e+00 2.0190000000e+00 0.0000000000e+00 
          -1.9410000000e+00 -2.0000000000e+00 0.0000000000e+00 
          -4.5270000000e+00 2.1230000000e+00 0.0000000000e+00 
          -1.8530000000e+00 -2.0000000000e+00 0.0000000000e+00 
          -1.7650000000e+00 -2.0000000000e+00 0.0000000000e+00 
          -4.4770000000e+00 2.2270000000e+00 0.0000000000e+00 
          -1.6760000000e+00 -2.0000000000e+00 0.0000000000e+00 
          -4.4240000000e+00 2.3290000000e+00 0.0000000000e+00 
          -1.5880000000e+00 -2.0000000000e+00 0.0000000000e+00 
          -4.3700000000e+00 2.4300000000e+00 0.0000000000e+00 
          -1.5000000000e+00 -2.0000000000e+00 0.0000000000e+00 
          -1.4120000000e+00 -2.0000000000e+00 0.0000000000e+00 
          -4.3140000000e+00 2.5280000000e+00 0.0000000000e+00 
          -1.3240000000e+00 -2.0000000000e+00 0.0000000000e+00 
          -4.2550000000e+00 2.6260000000e+00 0.0000000000e+00 
          -1.2350000000e+00 -2.0000000000e+00 0.0000000000e+00 
          -4.1950000000e+00 2.7200000000e+00 0.0000000000e+00 
          -1.1470000000e+00 -2.0000000000e+00 0.0000000000e+00 
          -1.0590000000e+00 -2.0000000000e+00 0.0000000000e+00 
          -4.1340000000e+00 2.8130000000e+00 0.0000000000e+00 
          -9.7100000000e-01 -2.0000000000e+00 0.0000000000e+00 
          -4.0720000000e+00 2.9020000000e+00 0.0000000000e+00 
          -8.8200000000e-01 -2.0000000000e+00 0.0000000000e+00 
          -4.0080000000e+00 2.9890000000e+00 0.0000000000e+00 
          -7.9400000000e-01 -2.0000000000e+00 0.0000000000e+00 
          -7.0600000000e-01 -2.0000000000e+00 0.0000000000e+00 
          -3.9480000000e+00 3.0680000000e+00 0.0000000000e+00 
          -6.1800000000e-01 -2.0000000000e+00 0.0000000000e+00 
          -3.8860000000e+00 3.1470000000e+00 0.0000000000e+00 
          -5.2900000000e-01 -2.0000000000e+00 0.0000000000e+00 
          -3.8320000000e+00 3.2120000000e+00 0.0000000000e+00 
          -4.4100000000e-01 -2.0000000000e+00 0.0000000000e+00 
          -3.7770000000e+00 3.2770000000e+00 0.0000000000e+00 
          -3.5300000000e-01 -2.0000000000e+00 0.0000000000e+00 
          -3.7220000000e+00 3.3390000000e+00 0.0000000000e+00 
          -2.6500000000e-01 -2.0000000000e+00 0.0000000000e+00 
          -3.6660000000e+00 3.4000000000e+00 0.0000000000e+00 
          -1.7600000000e-01 -2.0000000000e+00 0.0000000000e+00 
          -3.6010000000e+00 3.4690000000e+00 0.0000000000e+00 
          -8.8000000000e-02 -2.0000000000e+00 0.0000000000e+00 
          -3.5360000000e+00 3.5360000000e+00 0.0000000000e+00 
          0.0000000000e+00 -2.0000000000e+00 0.0000000000e+00 
          8.8000000000e-02 -2.0000000000e+00 0.0000000000e+00 
          -3.4530000000e+00 3.6160000000e+00 0.0000000000e+00 
          1.7600000000e-01 -2.0000000000e+00 0.0000000000e+00 
          -3.3680000000e+00 3.6950000000e+00 0.0000000000e+00 
          2.6500000000e-01 -2.0000000000e+00 0.0000000000e+00 
          3.5300000000e-01 -2.0000000000e+00 0.0000000000e+00 
          -3.2820000000e+00 3.7720000000e+00 0.0000000000e+00 
          4.4100000000e-01 -2.0000000000e+00 0.0000000000e+00 
          -3.1940000000e+00 3.8470000000e+00 0.0000000000e+00 
          5.2900000000e-01 -2.0000000000e+00 0.0000000000e+00 
          6.1800000000e-01 -2.0000000000e+00 0.0000000000e+00 
          -3.1050000000e+00 3.9190000000e+00 0.0000000000e+00 
          7.0600000000e-01 -2.0000000000e+00 0.0000000000e+00 
          -3.0130000000e+00 3.9900000000e+00 0.0000000000e+00 
          7.9400000000e-01 -2.0000000000e+00 0.0000000000e+00 
          8.8200000000e-01 -2.0000000000e+00 0.0000000000e+00 
          -2.9200000000e+00 4.0590000000e+00 0.0000000000e+00 
          9.7100000000e-01 -2.0000000000e+00 0.0000000000e+00 
          -2.8260000000e+00 4.1250000000e+00 0.0000000000e+00 
          1.0590000000e+00 -2.0000000000e+00 0.0000000000e+00 
          1.1470000000e+00 -2.0000000000e+00 0.0000000000e+00 
          -2.7300000000e+00 4.1890000000e+00 0.0000000000e+00 
          1.2350000000e+00 -2.0000000000e+00 0.0000000000e+00 
          -2.6320000000e+00 4.2510000000e+00 0.0000000000e+00 
          1.3240000000e+00 -2.0000000000e+00 0.0000000000e+00 
          1.4120000000e+00 -2.0000000000e+00 0.0000000000e+00 
          -2.5330000000e+00 4.3110000000e+00 0.0000000000e+00 
          1.5000000000e+00 -2.0000000000e+00 0.0000000000e+00 
          -2.4330000000e+00 4.3680000000e+00 0.0000000000e+00 
          1.5880000000e+00 -2.0000000000e+00 0.0000000000e+00 
          1.6760000000e+00 -2.0000000000e+00 0.0000000000e+00 
          -2.3320000000e+00 4.4230000000e+00 0.0000000000e+00 
          1.7650000000e+00 -2.0000000000e+00 0.0000000000e+00 
          -2.2290000000e+00 4.4760000000e+00 0.0000000000e+00 
          1.8530000000e+00 -2.0000000000e+00 0.0000000000e+00 
          1.9410000000e+00 -2.0000000000e+00 0.0000000000e+00 
          -2.1250000000e+00 4.5260000000e+00 0.0000000000e+00 
          2.0290000000e+00 -2.0000000000e+00 0.0000000000e+00 
          -2.0200000000e+00 4.5740000000e+00 0.0000000000e+00 
          2.1180000000e+00 -2.0000000000e+00 0.0000000000e+00 
          2.2060000000e+00 -2.0000000000e+00 0.0000000000e+00 
          -1.9130000000e+00 4.6190000000e+00 0.0000000000e+00 
          2.2940000000e+00 -2.0000000000e+00 0.0000000000e+00 
          -1.8060000000e+00 4.6620000000e+00 0.0000000000e+00 
          2.3820000000e+00 -2.0000000000e+00 0.0000000000e+00 
          2.4710000000e+00 -2.0000000000e+00 0.0000000000e+00 
          -1.6980000000e+00 4.7030000000e+00 0.0000000000e+00 
          2.5590000000e+00 -2.0000000000e+00 0.0000000000e+00 
          -1.5890000000e+00 4.7410000000e+00 0.0000000000e+00 
          2.6470000000e+00 -2.0000000000e+00 0.0000000000e+00 
          -1.4790000000e+00 4.7760000000e+00 0.0000000000e+00 
          2.7350000000e+00 -2.0000000000e+00 0.0000000000e+00 
          2.8240000000e+00 -2.0000000000e+00 0.0000000000e+00 
          -1.3680000000e+00 4.8090000000e+00 0.0000000000e+00 
          2.9120000000e+00 -2.0000000000e+00 0.0000000000e+00 
          -1.2570000000e+00 4.8390000000e+00 0.0000000000e+00 
[...]
      <PointData>
        <DataArray type="Int32" Name="NodeTag" format="ascii">
          210374
          210426
          210478
          210496
          210534
          210587
          210622
          210641
          210698
          210721
          210755
          210822
          210836
          210881
          210933
          210937
          210996
          211042
          211076
          211138
          211155
          211193
          211246
          211260
          211291
          211361
          211374
          211421
          211479
          211485
          211537
          211593
          211607
          211676
          211711
          211734
          211773
          211817
          211840
          211893
          211907
          211977
          211978
          212049
          212063
          212115
          212142
          212184
          212227
          212256
          212319
          212328
          212396
          212402
          212478
          212501
          212551
          212591
          212618
          212696
          212698
          212773
          212791
          212848
          212897
          212929
          213010
          213015
          213091
          213122
          213179
          213250
          213267
          213351
          213360
          213444
          213481
          213544
          213621
          213643
          213734
          213744
          213837
          213864
          213931
          213976
          214039
          214079
          214145
          214208
          214268
          214327
          214373
          214461
          214490
          214593
          214599
          214703
          214754
          214827
          214929
          214936
          215055
          215098
          215162
          215252
          215264
          215388
          215426
          215487
          215599
          215611
          215717
          215764
          215834
          215924
          215935
          216050
          216090
          216152
          216249
          216267
          216372
          216416
          216485
          216575
          216601
          216699
          216729
          216809
          216887
          216913
          217029
          217056
          217138
          217213
          217256
          217364
          217382
          217465
          217526
          217573
          217677
          217685
          217798
          217845
          217906
          217992
          218011
          218109
          218144
          218217
          218282
          218318
          218427
          218508
          218565
          218692
          218705
          218837
          218863
          218966
          219047
          219099
          219227
          219229
          219352
          219401
          219477
          219568
          219586
          219715
          219754
          219830
          219920
          219937
          220039
          220082
          220141
          220255
          220307
          220354
          220450
          220519
          220550
          220594
          220631
          220663
          220722
          220733
          220811
          220814
          220893
          220902
          220971
          220985
          221051
          221065
          221120
          221147
          221192
          221218
          221269
          221285
          221348
          221365
          221423
          221435
          221499
          221500
          221564
          221574
          221618
          221633
          221675
          221684
          221728
          221743
          221772
          221786
          221823
          221828
          221871
          221890
          221919
          221924
          221959
          221967
          221998
          222006
          222030
          222034
          222062
          222066
          222090
          222093
          222119
          222121
          222137
          222139
          222159
          222163
          222178
          222182
          222187
          222195
          222198
          222209
          222210
          222217
          222218
          222222
          222224
          222231
          222233
          222235
          222237
          222241
          222244
          222246
        </DataArray>
        <DataArray type="Float32" Name="Displacement" NumberOfComponents="3" format="ascii">
          8.8382959144e-04 -4.3417088771e-02 1.0136097784e-03 
          7.4524406613e-04 -4.3418806024e-02 9.2562059254e-04 
          6.1882214869e-04 -4.3420524116e-02 8.4350454170e-04 
          8.8323668306e-04 -4.3192025699e-02 1.1212065654e-03 
          5.0371894903e-04 -4.3422243005e-02 7.6732173398e-04 
          3.9978551245e-04 -4.3423956075e-02 6.9748177854e-04 
          8.8254606654e-04 -4.2949268243e-02 1.1847152032e-03 
          3.0473402191e-04 -4.3425687189e-02 6.3285101617e-04 
          2.1853597832e-04 -4.3427441599e-02 5.7355180741e-04 
          8.8206179049e-04 -4.2759853378e-02 1.2099956882e-03 
          1.4046780450e-04 -4.3429209516e-02 5.1908610485e-04 
          6.9873441502e-05 -4.3431004698e-02 4.6889811781e-04 
          8.8160741555e-04 -4.2567740888e-02 1.2194923587e-03 
          6.1866672272e-06 -4.3432814921e-02 4.2240815043e-04 
          8.8116696364e-04 -4.2375183770e-02 1.2158882803e-03 
          -5.1081880805e-05 -4.3434655440e-02 3.7899339332e-04 
          -1.0198380919e-04 -4.3436498436e-02 3.3830198206e-04 
          8.8075316631e-04 -4.2184096781e-02 1.2013363514e-03 
          -1.4754303535e-04 -4.3438385339e-02 2.9911877563e-04 
          -1.8758711682e-04 -4.3440287521e-02 2.6109644299e-04 
          8.8035175589e-04 -4.1996036007e-02 1.1777744825e-03 
          -2.2224225799e-04 -4.3442219290e-02 2.2361190151e-04 
          -2.4624029785e-04 -4.3443572183e-02 1.9350541154e-04 
          8.7997312875e-04 -4.1812311375e-02 1.1467823167e-03 
          -2.6697946016e-04 -4.3444476045e-02 1.6310284967e-04 
          -2.8410307974e-04 -4.3445050429e-02 1.3303200455e-04 
          8.7960519762e-04 -4.1633968815e-02 1.1097897916e-03 
          -2.9780555073e-04 -4.3445614063e-02 1.0306862298e-04 
          -3.0810902188e-04 -4.3446188240e-02 7.3209843633e-05 
          8.7925711996e-04 -4.1461872215e-02 1.0679666547e-03 
          -3.1503352053e-04 -4.3446952550e-02 4.3541908894e-05 
          8.7891847596e-04 -4.1296690073e-02 1.0223703536e-03 
          -3.1857381218e-04 -4.3448088458e-02 1.4369944618e-05 
          -3.1884487918e-04 -4.3449720635e-02 -1.4573151319e-05 
          8.7859773625e-04 -4.1138956657e-02 9.7386005445e-04 
          -3.1591816532e-04 -4.3451997509e-02 -4.2943693494e-05 
          8.7842278920e-04 -4.1054483997e-02 9.4586898265e-04 
          -3.0983801317e-04 -4.3455033380e-02 -7.0912135818e-05 
          8.7825397550e-04 -4.0972499908e-02 9.1732593596e-04 
          -3.0075608827e-04 -4.3458997864e-02 -9.8271432970e-05 
          8.7808601108e-04 -4.0892159554e-02 8.8800476110e-04 
          -2.8878902138e-04 -4.3463920698e-02 -1.2492718849e-04 
          8.7792284018e-04 -4.0815304286e-02 8.5865687685e-04 
          8.7776260119e-04 -4.0741043795e-02 8.2904131956e-04 
          -2.7392681039e-04 -4.3470046273e-02 -1.5113817102e-04 
          8.7760759689e-04 -4.0669398695e-02 7.9923210231e-04 
          -2.5638714321e-04 -4.3477327494e-02 -1.7659880246e-04 
          8.7745318439e-04 -4.0599613483e-02 7.6895719414e-04 
          -2.3631298050e-04 -4.3486034592e-02 -2.0133929704e-04 
          8.7730467702e-04 -4.0533265104e-02 7.3895581630e-04 
          -2.1382337113e-04 -4.3496060585e-02 -2.2525049694e-04 
          8.7715867758e-04 -4.0469557615e-02 7.0894232246e-04 
          8.7701582242e-04 -4.0408490305e-02 6.7896123927e-04 
          -1.8907082593e-04 -4.3507725715e-02 -2.4836429921e-04 
          8.7687316735e-04 -4.0349409402e-02 6.4871409799e-04 
          -1.6218555295e-04 -4.3521109212e-02 -2.7057303874e-04 
          8.7673501086e-04 -4.0293634720e-02 6.1891343422e-04 
          -1.3358279460e-04 -4.3535732234e-02 -2.9156801516e-04 
          8.7659780695e-04 -4.0240476666e-02 5.8924817195e-04 
          8.7646215211e-04 -4.0189922399e-02 5.5974117952e-04 
          -1.0286484165e-04 -4.3552212848e-02 -3.1187258537e-04 
          8.7632706783e-04 -4.0141426779e-02 5.3007904565e-04 
          -7.0768147313e-05 -4.3570609084e-02 -3.3106475390e-04 
          8.7619445047e-04 -4.0096063324e-02 5.0094178983e-04 
          -3.7114897662e-05 -4.3590297985e-02 -3.4915152001e-04 
          8.7606370262e-04 -4.0053255099e-02 4.7200650220e-04 
          8.7593318273e-04 -4.0012984113e-02 4.4327803337e-04 
          -2.7916414165e-06 -4.3611599886e-02 -3.6598478053e-04 
          8.7580277820e-04 -3.9975232001e-02 4.1475972631e-04 
          3.3112299362e-05 -4.3634922404e-02 -3.8196822419e-04 
          8.7567087731e-04 -3.9939593919e-02 3.8613197018e-04 
          6.8948382990e-05 -4.3659470318e-02 -3.9645738390e-04 
          8.7554044431e-04 -3.9906852025e-02 3.5803676301e-04 
          8.7540999768e-04 -3.9876573443e-02 3.3014627902e-04 
          1.0569015505e-04 -4.3685224825e-02 -4.0985572944e-04 
          8.7527953796e-04 -3.9848740472e-02 3.0245377922e-04 
          1.4194866520e-04 -4.3712111838e-02 -4.2192238452e-04 
          8.7514758318e-04 -3.9823061264e-02 2.7463796341e-04 
          1.7836878976e-04 -4.3740518742e-02 -4.3286847980e-04 
          8.7501709941e-04 -3.9800096701e-02 2.4731273059e-04 
          8.7488660504e-04 -3.9779529430e-02 2.2015093071e-04 
          2.1221163838e-04 -4.3767716303e-02 -4.4197853537e-04 
          8.7475610107e-04 -3.9761345772e-02 1.9313794780e-04 
          2.4673952100e-04 -4.3796303686e-02 -4.5032196597e-04 
          8.7462410547e-04 -3.9745367168e-02 1.6595239421e-04 
          2.7559187058e-04 -4.3821550362e-02 -4.5663718837e-04 
          8.7449358560e-04 -3.9731941802e-02 1.3918766017e-04 
          3.0483528993e-04 -4.3847564970e-02 -4.6232785861e-04 
          8.7436305962e-04 -3.9720867330e-02 1.1251873197e-04 
          3.3303134255e-04 -4.3873833474e-02 -4.6721921722e-04 
          8.7423252879e-04 -3.9712136263e-02 8.5926225335e-05 
          3.6104372923e-04 -4.3900793983e-02 -4.7143211657e-04 
          8.7410051105e-04 -3.9705683431e-02 5.9088438948e-05 
          3.9299954285e-04 -4.3932332133e-02 -4.7543368487e-04 
          8.7396997442e-04 -3.9701649890e-02 3.2587639050e-05 
          4.2425587396e-04 -4.3964069353e-02 -4.7855774487e-04 
          8.7383943690e-04 -3.9699947597e-02 6.1008069281e-06 
          8.7370889985e-04 -3.9700576363e-02 -2.0393362064e-05 
          4.6176086679e-04 -4.4004773477e-02 -4.8121804455e-04 
          8.7357836461e-04 -3.9703537670e-02 -4.6916209176e-05 
          4.9894055934e-04 -4.4046575161e-02 -4.8253029612e-04 
          8.7344634924e-04 -3.9708908723e-02 -7.3791341705e-05 
          8.7331582171e-04 -3.9716574096e-02 -1.0043581845e-04 
          5.3520577680e-04 -4.4088887732e-02 -4.8254979894e-04 
          8.7318530000e-04 -3.9726588113e-02 -1.2717187818e-04 
          5.7044260980e-04 -4.4132085826e-02 -4.8129470437e-04 
          8.7305478540e-04 -3.9738959609e-02 -1.5401917900e-04 
          8.7292279619e-04 -3.9753880465e-02 -1.8130425017e-04 
          6.0409898498e-04 -4.4175559071e-02 -4.7879045701e-04 
          8.7279229961e-04 -3.9771027681e-02 -2.0843187222e-04 
          6.3703121687e-04 -4.4220160726e-02 -4.7494373904e-04 
          8.7266181375e-04 -3.9790569327e-02 -2.3572491330e-04 
          8.7253133966e-04 -3.9812520562e-02 -2.6319852704e-04 
          6.6869793575e-04 -4.4264797314e-02 -4.6984591348e-04 
          8.7239939591e-04 -3.9837189005e-02 -2.9118244058e-04 
          6.9857952813e-04 -4.4309329715e-02 -4.6359213126e-04 
          8.7226894841e-04 -3.9864038087e-02 -3.1905966075e-04 
          8.7213851535e-04 -3.9893349873e-02 -3.4715398278e-04 
          7.2707687573e-04 -4.4354110890e-02 -4.5609061292e-04 
          8.7200809736e-04 -3.9925143779e-02 -3.7547298763e-04 
          7.5414761900e-04 -4.4398982872e-02 -4.4732016944e-04 
          8.7187621321e-04 -3.9959844075e-02 -4.0434856183e-04 
          8.7174582688e-04 -3.9996691603e-02 -4.3313426946e-04 
          7.7975133175e-04 -4.4443357554e-02 -4.3738879143e-04 
          8.7161542954e-04 -4.0036082567e-02 -4.6215385078e-04 
          8.0344248363e-04 -4.4487085546e-02 -4.2636102738e-04 
          8.7148347190e-04 -4.0078037449e-02 -4.9140419110e-04 
          8.7135123593e-04 -4.0122576310e-02 -5.2087971473e-04 
          8.2564511856e-04 -4.4530036132e-02 -4.1403891128e-04 
          8.7121669779e-04 -4.0170269331e-02 -5.5090901025e-04 
          8.4630164760e-04 -4.4572495186e-02 -4.0085371538e-04 
          8.7108221232e-04 -4.0220063288e-02 -5.8080474448e-04 
          8.7094623278e-04 -4.0272496356e-02 -6.1088424838e-04 
          8.6504334873e-04 -4.4613921899e-02 -3.8682397199e-04 
          8.7080877234e-04 -4.0327583657e-02 -6.4112537270e-04 
          8.8231904554e-04 -4.4654196369e-02 -3.7207572926e-04 
          8.7066753155e-04 -4.0386009997e-02 -6.7184536432e-04 
          8.7052658749e-04 -4.0446472707e-02 -7.0232202449e-04 
          8.9803988991e-04 -4.4693603713e-02 -3.5832583086e-04 
          8.7038285867e-04 -4.0509620480e-02 -7.3286030020e-04 
          9.1229415295e-04 -4.4731424204e-02 -3.4210667436e-04 
          8.7023734490e-04 -4.0575456631e-02 -7.6341600545e-04 
          8.7008623380e-04 -4.0644774796e-02 -7.9428365275e-04 
          9.2510655740e-04 -4.4767723604e-02 -3.2388843946e-04 
          8.6993445054e-04 -4.0716011481e-02 -8.2471333221e-04 
          9.3624222266e-04 -4.4802243824e-02 -3.0413242444e-04 
          8.6977792498e-04 -4.0789919694e-02 -8.5498456198e-04 
          9.4561579257e-04 -4.4834924899e-02 -2.8460900006e-04 
          8.6961989356e-04 -4.0866481983e-02 -8.8502461883e-04 
          8.6945632880e-04 -4.0946589683e-02 -9.1508462299e-04 
          9.5373424309e-04 -4.4865688366e-02 -2.6454367135e-04 
          8.6929373820e-04 -4.1028410137e-02 -9.4439790965e-04 
          9.6042412781e-04 -4.4894172918e-02 -2.4400143755e-04 
          8.6912405812e-04 -4.1112788728e-02 -9.7320030423e-04 
          9.6603112537e-04 -4.4920551047e-02 -2.2281178377e-04 
          8.6881331416e-04 -4.1270539729e-02 -1.0232762429e-03 
          9.7040259835e-04 -4.4944711205e-02 -2.0106878425e-04 
          8.6848545170e-04 -4.1435998287e-02 -1.0705851342e-03 
          9.7385985014e-04 -4.4966370390e-02 -1.7892824170e-04 
          9.7629678729e-04 -4.4985643205e-02 -1.5629608460e-04 
          8.6814855705e-04 -4.1608654076e-02 -1.1142759170e-03 
          9.7785249144e-04 -4.5002292514e-02 -1.3337069580e-04 
          8.6779275796e-04 -4.1787863692e-02 -1.1532999324e-03 
          9.7876681843e-04 -4.5016407186e-02 -1.0998156038e-04 
          8.6742674329e-04 -4.1972789966e-02 -1.1864969758e-03 
          9.7904019253e-04 -4.5027795918e-02 -8.6409233468e-05 
          9.7880848292e-04 -4.5036441077e-02 -6.2669795796e-05 
          8.6703892116e-04 -4.2162415009e-02 -1.2124460691e-03 
          9.7826403790e-04 -4.5042331202e-02 -3.8806924361e-05 
          8.6663917414e-04 -4.2355458432e-02 -1.2295757048e-03 
          9.7746453581e-04 -4.5045466006e-02 -1.4682187659e-05 
          9.7656915447e-04 -4.5045784487e-02 9.2780600946e-06 
          8.6621379395e-04 -4.2550394646e-02 -1.2359531368e-03 
          9.7569185148e-04 -4.5043332601e-02 3.3223891581e-05 
          8.6577504054e-04 -4.2745340071e-02 -1.2294277307e-03 
          9.7496445823e-04 -4.5038049182e-02 5.7303953789e-05 
          9.7454632671e-04 -4.5030035803e-02 8.1090347309e-05 
          8.6530774147e-04 -4.2938072584e-02 -1.2073094701e-03 
          9.7447548853e-04 -4.5019278003e-02 1.0471802541e-04 
          9.7496219766e-04 -4.5005791435e-02 1.2814050289e-04 
          8.6464062492e-04 -4.3186039347e-02 -1.1482737247e-03 
          9.7614007033e-04 -4.4989598080e-02 1.5133871466e-04 
          9.7799093371e-04 -4.4970912031e-02 1.7403110364e-04 
          8.6407864014e-04 -4.3417277635e-02 -1.0453823318e-03 
          9.8076626887e-04 -4.4949630537e-02 1.9638354718e-04 
          1.0074327968e-03 -4.3418989628e-02 -9.6048715613e-04 
          9.8460926676e-04 -4.4926014871e-02 2.1818354100e-04 
          1.1390416336e-03 -4.3420702417e-02 -8.8112321744e-04 
          9.8939715730e-04 -4.4899942932e-02 2.3950477905e-04 
          1.2597001592e-03 -4.3422415929e-02 -8.0734225748e-04 
          9.9546205316e-04 -4.4871721529e-02 2.6019811497e-04 
          1.3694665074e-03 -4.3424122260e-02 -7.3956463695e-04 
          1.4706672653e-03 -4.3425844840e-02 -6.7672847406e-04 
          1.0026308914e-03 -4.4841468749e-02 2.8021672314e-04 
          1.5632534340e-03 -4.3427589396e-02 -6.1898134863e-04 
          1.0112646020e-03 -4.4808995578e-02 2.9977067323e-04 
          1.6479158555e-03 -4.3429347098e-02 -5.6584795609e-04 
          1.0211120490e-03 -4.4774693988e-02 3.1813738010e-04 
          1.7252797469e-03 -4.3431131912e-02 -5.1678011317e-04 
          1.0325747968e-03 -4.4738715745e-02 3.3572351668e-04 
          1.7958816157e-03 -4.3432931215e-02 -4.7120831277e-04 
          1.0457168302e-03 -4.4701176515e-02 3.5248115123e-04 
          1.8601829401e-03 -4.3434760257e-02 -4.2852342854e-04 
          1.0602512604e-03 -4.4662214236e-02 3.6838133474e-04 
          1.9181589887e-03 -4.3436591793e-02 -3.8837792038e-04 
          1.0762485815e-03 -4.4621573762e-02 3.8372682671e-04 
          1.9709077450e-03 -4.3438467114e-02 -3.4956592741e-04 
          1.0940864702e-03 -4.4580097754e-02 3.9810996568e-04 
          1.1134101794e-03 -4.4537539863e-02 4.1158912675e-04 
          2.0181813865e-03 -4.3440358125e-02 -3.1173029320e-04 
          1.1346415805e-03 -4.4494023029e-02 4.2405820098e-04 
          2.0600785356e-03 -4.3442279609e-02 -2.7422867137e-04 
          1.1574314954e-03 -4.4450126282e-02 4.3553388996e-04 
          2.0898892925e-03 -4.3443576477e-02 -2.4395974128e-04 
          1.1816715419e-03 -4.4405605000e-02 4.4473108802e-04 
          2.1164659116e-03 -4.3444275957e-02 -2.1327858772e-04 
          1.2076601292e-03 -4.4360576438e-02 4.5309185634e-04 
          2.1393387312e-03 -4.3444498505e-02 -1.8282706982e-04 
          1.2350241487e-03 -4.4315201910e-02 4.6036823290e-04 
          2.1585886157e-03 -4.3444600531e-02 -1.5265493878e-04 
          1.2637320616e-03 -4.4270064059e-02 4.6650021119e-04 
          2.1745635162e-03 -4.3444583627e-02 -1.2224149244e-04 
          1.2937414770e-03 -4.4225304957e-02 4.7145410225e-04 
          2.1869990286e-03 -4.3444603078e-02 -9.2203092756e-05 
          1.3254496583e-03 -4.4180560973e-02 4.7524661693e-04 
          2.1959859883e-03 -4.3444903863e-02 -6.2604994631e-05 
          1.3583338275e-03 -4.4135974454e-02 4.7778098660e-04 
          2.2016669747e-03 -4.3445614193e-02 -3.3146220096e-05 
          1.3918463981e-03 -4.4092629098e-02 4.7897642615e-04 
          2.2040769999e-03 -4.3446791851e-02 -4.0967038268e-06 
          1.4268388237e-03 -4.4049678440e-02 4.7886170167e-04 
          2.2032940613e-03 -4.3448624977e-02 2.4353110245e-05 
          1.4627382588e-03 -4.4007718810e-02 4.7742746288e-04 
          2.1995612015e-03 -4.3451198671e-02 5.1825548985e-05 
          1.4994332643e-03 -4.3966389822e-02 4.7466480750e-04 
          2.1929106151e-03 -4.3454634210e-02 7.8912096420e-05 
          1.5363329344e-03 -4.3926267167e-02 4.7055962442e-04 
          2.1837865795e-03 -4.3458867238e-02 1.0466545128e-04 
          2.1720401048e-03 -4.3464211719e-02 1.3010553116e-04 
          1.5742848690e-03 -4.3887908466e-02 4.6517371399e-04 
          2.1590525982e-03 -4.3470221119e-02 1.5298139613e-04 