<VTKFile type="UnstructuredGrid" version="1.0" byte_order="LittleEndian" compressor="vtkZLibDataCompressor">
  <UnstructuredGrid>
    <Piece NumberOfPoints="202" NumberOfCells="200">
      <Points>
        <DataArray type="Float32" Name="Points" NumberOfComponents="3" format="ascii">
          -5.0000000000e+01 -3.0000000000e+01 0.0000000000e+00 
          -5.0000000000e+01 -2.9500000000e+01 0.0000000000e+00 
          -5.0000000000e+01 -2.9000000000e+01 0.0000000000e+00 
          -5.0000000000e+01 -2.8500000000e+01 0.0000000000e+00 
          -5.0000000000e+01 -2.8000000000e+01 0.0000000000e+00 
          -5.0000000000e+01 -2.7500000000e+01 0.0000000000e+00 
          -5.0000000000e+01 -2.7000000000e+01 0.0000000000e+00 
          -5.0000000000e+01 -2.6500000000e+01 0.0000000000e+00 
          -5.0000000000e+01 -2.6000000000e+01 0.0000000000e+00 
          -5.0000000000e+01 -2.5500000000e+01 0.0000000000e+00 
          -5.0000000000e+01 -2.5000000000e+01 0.0000000000e+00 
          -5.0000000000e+01 -2.4500000000e+01 0.0000000000e+00 
          -5.0000000000e+01 -2.4000000000e+01 0.0000000000e+00 
          -5.0000000000e+01 -2.3500000000e+01 0.0000000000e+00 
          -5.0000000000e+01 -2.3000000000e+01 0.0000000000e+00 
          -5.0000000000e+01 -2.2500000000e+01 0.0000000000e+00 
          -5.0000000000e+01 -2.2000000000e+01 0.0000000000e+00 
          -5.0000000000e+01 -2.1500000000e+01 0.0000000000e+00 
          -5.0000000000e+01 -2.1000000000e+01 0.0000000000e+00 
          -5.0000000000e+01 -2.0500000000e+01 0.0000000000e+00 
          -5.0000000000e+01 -2.0000000000e+01 0.0000000000e+00 
          -5.0000000000e+01 -1.9500000000e+01 0.0000000000e+00 
          -5.0000000000e+01 -1.9000000000e+01 0.0000000000e+00 
          -5.0000000000e+01 -1.8500000000e+01 0.0000000000e+00 
          -5.0000000000e+01 -1.8000000000e+01 0.0000000000e+00 
          -5.0000000000e+01 -1.7500000000e+01 0.0000000000e+00 
          -5.0000000000e+01 -1.7000000000e+01 0.0000000000e+00 
          -5.0000000000e+01 -1.6500000000e+01 0.0000000000e+00 
          -5.0000000000e+01 -1.6000000000e+01 0.0000000000e+00 
          -5.0000000000e+01 -1.5500000000e+01 0.0000000000e+00 
          -5.0000000000e+01 -1.5000000000e+01 0.0000000000e+00 
          -5.0000000000e+01 -1.4500000000e+01 0.0000000000e+00 
          -5.0000000000e+01 -1.4000000000e+01 0.0000000000e+00 
          -5.0000000000e+01 -1.3500000000e+01 0.0000000000e+00 
          -5.0000000000e+01 -1.3000000000e+01 0.0000000000e+00 
          -5.0000000000e+01 -1.2500000000e+01 0.0000000000e+00 
          -5.0000000000e+01 -1.2000000000e+01 0.0000000000e+00 
          -5.0000000000e+01 -1.1500000000e+01 0.0000000000e+00 
          -5.0000000000e+01 -1.1000000000e+01 0.0000000000e+00 
          -5.0000000000e+01 -1.0500000000e+01 0.0000000000e+00 
          -5.0000000000e+01 -1.0000000000e+01 0.0000000000e+00 
          -5.0000000000e+01 -9.5000000000e+00 0.0000000000e+00 
          -5.0000000000e+01 -9.0000000000e+00 0.0000000000e+00 
          -5.0000000000e+01 -8.5000000000e+00 0.0000000000e+00 
          -5.0000000000e+01 -8.0000000000e+00 0.0000000000e+00 
          -5.0000000000e+01 -7.5000000000e+00 0.0000000000e+00 
          -5.0000000000e+01 -7.0000000000e+00 0.0000000000e+00 
          -5.0000000000e+01 -6.5000000000e+00 0.0000000000e+00 
          -5.0000000000e+01 -6.0000000000e+00 0.0000000000e+00 
          -5.0000000000e+01 -5.5000000000e+00 0.0000000000e+00 
          -5.0000000000e+01 -5.0000000000e+00 0.0000000000e+00 
          -5.0000000000e+01 -4.5000000000e+00 0.0000000000e+00 
          -5.0000000000e+01 -4.0000000000e+00 0.0000000000e+00 
          -5.0000000000e+01 -3.5000000000e+00 0.0000000000e+00 
          -5.0000000000e+01 -3.0000000000e+00 0.0000000000e+00 
          -5.0000000000e+01 -2.5000000000e+00 0.0000000000e+00 
          -5.0000000000e+01 -2.0000000000e+00 0.0000000000e+00 
          -5.0000000000e+01 -1.5000000000e+00 0.0000000000e+00 
          -5.0000000000e+01 -1.0000000000e+00 0.0000000000e+00 
          -5.0000000000e+01 -5.0000000000e-01 0.0000000000e+00 
          -5.0000000000e+01 0.0000000000e+00 0.0000000000e+00 
          -5.0000000000e+01 5.0000000000e-01 0.0000000000e+00 
          -5.0000000000e+01 1.0000000000e+00 0.0000000000e+00 
          -5.0000000000e+01 1.5000000000e+00 0.0000000000e+00 
          -5.0000000000e+01 2.0000000000e+00 0.0000000000e+00 
          -5.0000000000e+01 2.5000000000e+00 0.0000000000e+00 
          -5.0000000000e+01 3.0000000000e+00 0.0000000000e+00 
          -5.0000000000e+01 3.5000000000e+00 0.0000000000e+00 
          -5.0000000000e+01 4.0000000000e+00 0.0000000000e+00 
          -5.0000000000e+01 4.5000000000e+00 0.0000000000e+00 
          -5.0000000000e+01 5.0000000000e+00 0.0000000000e+00 
          -5.0000000000e+01 5.5000000000e+00 0.0000000000e+00 
          -5.0000000000e+01 6.0000000000e+00 0.0000000000e+00 
          -5.0000000000e+01 6.5000000000e+00 0.0000000000e+00 
          -5.0000000000e+01 7.0000000000e+00 0.0000000000e+00 
          -5.0000000000e+01 7.5000000000e+00 0.0000000000e+00 
          -5.0000000000e+01 8.0000000000e+00 0.0000000000e+00 
          -5.0000000000e+01 8.5000000000e+00 0.0000000000e+00 
          -5.0000000000e+01 9.0000000000e+00 0.0000000000e+00 
          -5.0000000000e+01 9.5000000000e+00 0.0000000000e+00 
          -5.0000000000e+01 1.0000000000e+01 0.0000000000e+00 
          -5.0000000000e+01 1.0500000000e+01 0.0000000000e+00 
          -5.0000000000e+01 1.1000000000e+01 0.0000000000e+00 
          -5.0000000000e+01 1.1500000000e+01 0.0000000000e+00 
          -5.0000000000e+01 1.2000000000e+01 0.0000000000e+00 
          -5.0000000000e+01 1.2500000000e+01 0.0000000000e+00 
          -5.0000000000e+01 1.3000000000e+01 0.0000000000e+00 
          -5.0000000000e+01 1.3500000000e+01 0.0000000000e+00 
          -5.0000000000e+01 1.4000000000e+01 0.0000000000e+00 
          -5.0000000000e+01 1.4500000000e+01 0.0000000000e+00 
          -5.0000000000e+01 1.5000000000e+01 0.0000000000e+00 
          -5.0000000000e+01 1.5500000000e+01 0.0000000000e+00 
          -5.0000000000e+01 1.6000000000e+01 0.0000000000e+00 
          -5.0000000000e+01 1.6500000000e+01 0.0000000000e+00 
          -5.0000000000e+01 1.7000000000e+01 0.0000000000e+00 
          -5.0000000000e+01 1.7500000000e+01 0.0000000000e+00 
          -5.0000000000e+01 1.8000000000e+01 0.0000000000e+00 
          -5.0000000000e+01 1.8500000000e+01 0.0000000000e+00 
          -5.0000000000e+01 1.9000000000e+01 0.0000000000e+00 
          5.0000000000e+01 -3.0000000000e+01 0.0000000000e+00 
          5.0000000000e+01 -2.9500000000e+01 0.0000000000e+00 
          5.0000000000e+01 -2.9000000000e+01 0.0000000000e+00 
          5.0000000000e+01 -2.8500000000e+01 0.0000000000e+00 
          5.0000000000e+01 -2.8000000000e+01 0.0000000000e+00 
          5.0000000000e+01 -2.7500000000e+01 0.0000000000e+00 
          5.0000000000e+01 -2.7000000000e+01 0.0000000000e+00 
          5.0000000000e+01 -2.6500000000e+01 0.0000000000e+00 
          5.0000000000e+01 -2.6000000000e+01 0.0000000000e+00 
          5.0000000000e+01 -2.5500000000e+01 0.0000000000e+00 
          5.0000000000e+01 -2.5000000000e+01 0.0000000000e+00 
          5.0000000000e+01 -2.4500000000e+01 0.0000000000e+00 
          5.0000000000e+01 -2.4000000000e+01 0.0000000000e+00 
          5.0000000000e+01 -2.3500000000e+01 0.0000000000e+00 
          5.0000000000e+01 -2.3000000000e+01 0.0000000000e+00 
          5.0000000000e+01 -2.2500000000e+01 0.0000000000e+00 
          5.0000000000e+01 -2.2000000000e+01 0.0000000000e+00 
          5.0000000000e+01 -2.1500000000e+01 0.0000000000e+00 
          5.0000000000e+01 -2.1000000000e+01 0.0000000000e+00 
          5.0000000000e+01 -2.0500000000e+01 0.0000000000e+00 
          5.0000000000e+01 -2.0000000000e+01 0.0000000000e+00 
          5.0000000000e+01 -1.9500000000e+01 0.0000000000e+00 
          5.0000000000e+01 -1.9000000000e+01 0.0000000000e+00 
          5.0000000000e+01 -1.8500000000e+01 0.0000000000e+00 
          5.0000000000e+01 -1.8000000000e+01 0.0000000000e+00 
          5.0000000000e+01 -1.7500000000e+01 0.0000000000e+00 
          5.0000000000e+01 -1.7000000000e+01 0.0000000000e+00 
          5.0000000000e+01 -1.6500000000e+01 0.0000000000e+00 
          5.0000000000e+01 -1.6000000000e+01 0.0000000000e+00 
          5.0000000000e+01 -1.5500000000e+01 0.0000000000e+00 
          5.0000000000e+01 -1.5000000000e+01 0.0000000000e+00 
          5.0000000000e+01 -1.4500000000e+01 0.0000000000e+00 
          5.0000000000e+01 -1.4000000000e+01 0.0000000000e+00 
          5.0000000000e+01 -1.3500000000e+01 0.0000000000e+00 
          5.0000000000e+01 -1.3000000000e+01 0.0000000000e+00 
          5.0000000000e+01 -1.2500000000e+01 0.0000000000e+00 
          5.0000000000e+01 -1.2000000000e+01 0.0000000000e+00 
          5.0000000000e+01 -1.1500000000e+01 0.0000000000e+00 
          5.0000000000e+01 -1.1000000000e+01 0.0000000000e+00 
          5.0000000000e+01 -1.0500000000e+01 0.0000000000e+00 
          5.0000000000e+01 -1.0000000000e+01 0.0000000000e+00 
          5.0000000000e+01 -9.5000000000e+00 0.0000000000e+00 
          5.0000000000e+01 -9.0000000000e+00 0.0000000000e+00 
          5.0000000000e+01 -8.5000000000e+00 0.0000000000e+00 
          5.0000000000e+01 -8.0000000000e+00 0.0000000000e+00 
          5.0000000000e+01 -7.5000000000e+00 0.0000000000e+00 
          5.0000000000e+01 -7.0000000000e+00 0.0000000000e+00 
          5.0000000000e+01 -6.5000000000e+00 0.0000000000e+00 
          5.0000000000e+01 -6.0000000000e+00 0.0000000000e+00 
          5.0000000000e+01 -5.5000000000e+00 0.0000000000e+00 
          5.0000000000e+01 -5.0000000000e+00 0.0000000000e+00 
          5.0000000000e+01 -4.5000000000e+00 0.0000000000e+00 
          5.0000000000e+01 -4.0000000000e+00 0.0000000000e+00 
          5.0000000000e+01 -3.5000000000e+00 0.0000000000e+00 
[...]
      <PointData>
        <DataArray type="Int32" Name="NodeTag" format="ascii">
          200001
          200002
          200006
          200010
          200016
          200024
          200035
          200045
          200058
          200073
          200089
          200105
          200125
          200147
          200169
          200193
          200217
          200247
          200275
          200308
          200339
          200375
          200413
          200454
          200500
          200546
          200595
          200644
          200696
          200747
          200795
          200843
          200899
          200952
          201005
          201060
          201114
          201172
          201232
          201292
          201358
          201419
          201485
          201555
          201625
          201698
          201771
          201841
          201913
          201988
          202054
          202128
          202200
          202274
          202350
          202427
          202513
          202590
          202672
          202751
          202835
          202919
          203002
          203091
          203182
          203277
          203371
          203469
          203569
          203675
          203782
          203893
          204003
          204129
          204246
          204372
          204502
          204630
          204773
          204917
          205057
          205206
          205349
          205500
          205647
          205796
          205950
          206103
          206247
          206395
          206551
          206718
          206880
          207039
          207201
          207390
          207602
          207811
          208052
          232557
          232559
          232561
          232564
          232566
          232572
          232575
          232577
          232583
          232585
          232589
          232596
          232602
          232605
          232610
          232618
          232631
          232637
          232640
          232650
          232660
          232670
          232677
          232684
          232692
          232708
          232714
          232723
          232737
          232746
          232757
          232768
          232782
          232792
          232803
          232816
          232828
          232842
          232853
          232866
          232881
          232894
          232910
          232923
          232936
          232948
          232961
          232975
          232989
          233003
          233016
          233029
          233043
          233057
          233068
          233082
          233095
          233109
          233120
          233133
          233145
          233157
          233171
          233180
          233194
          233204
          233214
          233226
          233232
          233242
          233249
          233259
          233268
          233279
          233289
          233300
          233310
          233320
          233333
          233343
          233353
          233363
          233371
          233379
          233388
          233396
          233404
          233411
          233418
          233425
          233431
          233437
          233442
          233447
          233452
          233455
          233458
          233461
          233463
          233465
          233467
          233468
          233469
        </DataArray>
        <DataArray type="Float32" Name="Displacement" NumberOfComponents="3" format="ascii">
          0.0000000000e+00 0.0000000000e+00 0.0000000000e+00 
          -3.9348416737e-14 0.0000000000e+00 1.5703452438e-13 
          -1.5667538181e-13 0.0000000000e+00 3.1191419334e-13 
          -3.5090346751e-13 0.0000000000e+00 4.6463900688e-13 
          -6.2095524612e-13 0.0000000000e+00 6.1520896500e-13 
          -9.6575328994e-13 0.0000000000e+00 7.6362406771e-13 
          -1.3842201713e-12 0.0000000000e+00 9.0988431500e-13 
          -1.8752784624e-12 0.0000000000e+00 1.0539897069e-12 
          -2.4378507356e-12 0.0000000000e+00 1.1959402433e-12 
          -3.0708595631e-12 0.0000000000e+00 1.3357359243e-12 
          -3.7732275173e-12 0.0000000000e+00 1.4733767500e-12 
          -4.5438771705e-12 0.0000000000e+00 1.6088627202e-12 
          -5.3817310949e-12 0.0000000000e+00 1.7421938349e-12 
          -6.2857118629e-12 0.0000000000e+00 1.8733700943e-12 
          -7.2547420466e-12 0.0000000000e+00 2.0023914982e-12 
          -8.2877442185e-12 0.0000000000e+00 2.1292580468e-12 
          -9.3836409508e-12 0.0000000000e+00 2.2539697399e-12 
          -1.0541354816e-11 0.0000000000e+00 2.3765265775e-12 
          -1.1759808386e-11 0.0000000000e+00 2.4969285598e-12 
          -1.3037924233e-11 0.0000000000e+00 2.6151756867e-12 
          -1.4374624930e-11 0.0000000000e+00 2.7312679581e-12 
          -1.5768833049e-11 0.0000000000e+00 2.8452053741e-12 
          -1.7219471161e-11 0.0000000000e+00 2.9569879347e-12 
          -1.8725461841e-11 0.0000000000e+00 3.0666156399e-12 
          -2.0285727659e-11 0.0000000000e+00 3.1740884896e-12 
          -2.1899191188e-11 0.0000000000e+00 3.2794064840e-12 
          -2.3564775000e-11 0.0000000000e+00 3.3825696229e-12 
          -2.5281401668e-11 0.0000000000e+00 3.4835779064e-12 
          -2.7047993764e-11 0.0000000000e+00 3.5824313345e-12 
          -2.8863473860e-11 0.0000000000e+00 3.6791299071e-12 
          -3.0726764528e-11 0.0000000000e+00 3.7736736244e-12 
          -3.2636788342e-11 0.0000000000e+00 3.8660624862e-12 
          -3.4592467872e-11 0.0000000000e+00 3.9562964926e-12 
          -3.6592725692e-11 0.0000000000e+00 4.0443756436e-12 
          -3.8636484373e-11 0.0000000000e+00 4.1302999392e-12 
          -4.0722666488e-11 0.0000000000e+00 4.2140693793e-12 
          -4.2850194610e-11 0.0000000000e+00 4.2956839641e-12 
          -4.5017991310e-11 0.0000000000e+00 4.3751436934e-12 
          -4.7224979161e-11 0.0000000000e+00 4.4524485673e-12 
          -4.9470080735e-11 0.0000000000e+00 4.5275985858e-12 
          -5.1752218604e-11 0.0000000000e+00 4.6005937488e-12 
          -5.4070315341e-11 0.0000000000e+00 4.6714340565e-12 
          -5.6423293518e-11 0.0000000000e+00 4.7401195087e-12 
          -5.8810075707e-11 0.0000000000e+00 4.8066501055e-12 
          -6.1229584481e-11 0.0000000000e+00 4.8710258469e-12 
          -6.3680742411e-11 0.0000000000e+00 4.9332467329e-12 
          -6.6162472071e-11 0.0000000000e+00 4.9933127634e-12 
          -6.8673696032e-11 0.0000000000e+00 5.0512239386e-12 
          -7.1213336867e-11 0.0000000000e+00 5.1069802583e-12 
          -7.3780317148e-11 0.0000000000e+00 5.1605817226e-12 
          -7.6373559447e-11 0.0000000000e+00 5.2120283315e-12 
          -7.8991986337e-11 0.0000000000e+00 5.2613200849e-12 
          -8.1634520390e-11 0.0000000000e+00 5.3084569830e-12 
          -8.4300084177e-11 0.0000000000e+00 5.3534390256e-12 
          -8.6987600273e-11 0.0000000000e+00 5.3962662128e-12 
          -8.9695991248e-11 0.0000000000e+00 5.4369385446e-12 
          -9.2424179675e-11 0.0000000000e+00 5.4754560210e-12 
          -9.5171088126e-11 0.0000000000e+00 5.5118186419e-12 
          -9.7935639174e-11 0.0000000000e+00 5.5460264075e-12 
          -1.0071675539e-10 0.0000000000e+00 5.5780793176e-12 
          -1.0351335935e-10 0.0000000000e+00 5.6079773723e-12 
          -1.0632437362e-10 0.0000000000e+00 5.6357205716e-12 
          -1.0914872078e-10 0.0000000000e+00 5.6613089154e-12 
          -1.1198532476e-10 0.0000000000e+00 5.6847506023e-12 
          -1.1483312589e-10 0.0000000000e+00 5.7061193295e-12 
          -1.1769111624e-10 0.0000000000e+00 5.7255209560e-12 
          -1.2055833955e-10 0.0000000000e+00 5.7430788309e-12 
          -1.2343390914e-10 0.0000000000e+00 5.7589211499e-12 
          -1.2631699778e-10 0.0000000000e+00 5.7731859682e-12 
          -1.2920685488e-10 0.0000000000e+00 5.7860093655e-12 
          -1.3210278774e-10 0.0000000000e+00 5.7975163004e-12 
          -1.3500417202e-10 0.0000000000e+00 5.8078282971e-12 
          -1.3791043620e-10 0.0000000000e+00 5.8170612716e-12 
          -1.4082107219e-10 0.0000000000e+00 5.8253276502e-12 
          -1.4373562013e-10 0.0000000000e+00 5.8327317067e-12 
          -1.4665367676e-10 0.0000000000e+00 5.8393729410e-12 
          -1.4957488045e-10 0.0000000000e+00 5.8453384264e-12 
          -1.5249891566e-10 0.0000000000e+00 5.8507067621e-12 
          -1.5542549553e-10 0.0000000000e+00 5.8555250218e-12 
          -1.5835435301e-10 0.0000000000e+00 5.8598172212e-12 
          -1.6128522507e-10 0.0000000000e+00 5.8635833603e-12 
          -1.6421784869e-10 0.0000000000e+00 5.8668234390e-12 
          -1.6715196083e-10 0.0000000000e+00 5.8695374575e-12 
          -1.7008729859e-10 0.0000000000e+00 5.8717261031e-12 
          -1.7302360639e-10 0.0000000000e+00 5.8734314627e-12 
          -1.7596066021e-10 0.0000000000e+00 5.8747177925e-12 
          -1.7889826568e-10 0.0000000000e+00 5.8756531145e-12 
          -1.8183626592e-10 0.0000000000e+00 5.8763040156e-12 
          -1.8477453224e-10 0.0000000000e+00 5.8767301747e-12 
          -1.8771296789e-10 0.0000000000e+00 5.8769871176e-12 
          -1.9065149911e-10 0.0000000000e+00 5.8771225982e-12 
          -1.9359007754e-10 0.0000000000e+00 5.8771803733e-12 
          -1.9652867236e-10 0.0000000000e+00 5.8771953601e-12 
          -1.9946727077e-10 0.0000000000e+00 5.8771975677e-12 
          -2.0240586956e-10 0.0000000000e+00 5.8771975677e-12 
          -2.0534446834e-10 0.0000000000e+00 5.8771975677e-12 
          -2.0828306712e-10 0.0000000000e+00 5.8771975677e-12 
          -2.1122166591e-10 0.0000000000e+00 5.8771975677e-12 
          -2.1416026469e-10 0.0000000000e+00 5.8771975677e-12 
          0.0000000000e+00 0.0000000000e+00 0.0000000000e+00 
          4.7151879689e-255 0.0000000000e+00 -1.8815324179e-254 
          1.8769898515e-254 0.0000000000e+00 -3.7358090311e-254 
          4.2027852616e-254 0.0000000000e+00 -5.5628288232e-254 
          7.4352759051e-254 0.0000000000e+00 -7.3625924040e-254 
          1.1560835099e-253 0.0000000000e+00 -9.1351062775e-254 
          1.6565838397e-253 0.0000000000e+00 -1.0880364753e-253 
          2.2436660131e-253 0.0000000000e+00 -1.2598379211e-253 
          2.9159674635e-253 0.0000000000e+00 -1.4289142337e-253 
          3.6721262747e-253 0.0000000000e+00 -1.5952673640e-253 
          4.5107811807e-253 0.0000000000e+00 -1.7588987756e-253 
          5.4305715660e-253 0.0000000000e+00 -1.9198092814e-253 
          6.4301374656e-253 0.0000000000e+00 -2.0779992066e-253 
          7.5081182639e-253 0.0000000000e+00 -2.2334701771e-253 
          8.6631546462e-253 0.0000000000e+00 -2.3862249572e-253 
          9.8938898994e-253 0.0000000000e+00 -2.5362640346e-253 
          1.1198964709e-252 0.0000000000e+00 -2.6835857833e-253 
          1.2577022361e-252 0.0000000000e+00 -2.8281928049e-253 
          1.4026707444e-252 0.0000000000e+00 -2.9700922537e-253 
          1.5546664545e-252 0.0000000000e+00 -3.1092808778e-253 
          1.7135538252e-252 0.0000000000e+00 -3.2457619291e-253 
          1.8791975754e-252 0.0000000000e+00 -3.3795360579e-253 
          2.0514626842e-252 0.0000000000e+00 -3.5106234264e-253 
          2.2302150411e-252 0.0000000000e+00 -3.6390142787e-253 
          2.4153191051e-252 0.0000000000e+00 -3.7647066636e-253 
          2.6066408956e-252 0.0000000000e+00 -3.8877233449e-253 
          2.8040469529e-252 0.0000000000e+00 -4.0080714767e-253 
          3.0074038168e-252 0.0000000000e+00 -4.1257546363e-253 
          3.2165780274e-252 0.0000000000e+00 -4.2407744495e-253 
          3.4314366450e-252 0.0000000000e+00 -4.3531413227e-253 
          3.6518482909e-252 0.0000000000e+00 -4.4628734667e-253 
          3.8776802855e-252 0.0000000000e+00 -4.5699614510e-253 
          4.1088007298e-252 0.0000000000e+00 -4.6744192588e-253 
          4.3450774645e-252 0.0000000000e+00 -4.7762234761e-253 
          4.5863788509e-252 0.0000000000e+00 -4.8753897124e-253 
          4.8325722093e-252 0.0000000000e+00 -4.9719231706e-253 
          5.0835274617e-252 0.0000000000e+00 -5.0658186478e-253 
          5.3391114085e-252 0.0000000000e+00 -5.1570969563e-253 
          5.5991939715e-252 0.0000000000e+00 -5.2457958189e-253 
          5.8636476744e-252 0.0000000000e+00 -5.3319126338e-253 
          6.1323413986e-252 0.0000000000e+00 -5.4154200848e-253 
          6.4051471474e-252 0.0000000000e+00 -5.4963832109e-253 
          6.6819379647e-252 0.0000000000e+00 -5.5748306291e-253 
          6.9625884553e-252 0.0000000000e+00 -5.6507655914e-253 
          7.2469721834e-252 0.0000000000e+00 -5.7241718382e-253 
          7.5349637540e-252 0.0000000000e+00 -5.7951000997e-253 
          7.8264414140e-252 0.0000000000e+00 -5.8635711886e-253 
          8.1212813291e-252 0.0000000000e+00 -5.9295883566e-253 
          8.4193596653e-252 0.0000000000e+00 -5.9931672132e-253 
          8.7205598726e-252 0.0000000000e+00 -6.0544632015e-253 
          9.0247685230e-252 0.0000000000e+00 -6.1135550188e-253 
          9.3318773917e-252 0.0000000000e+00 -6.1704621767e-253 
          9.6417782538e-252 0.0000000000e+00 -6.2251749193e-253 
          9.9543597626e-252 0.0000000000e+00 -6.2777504810e-253 
          1.0269516815e-251 0.0000000000e+00 -6.3281888617e-253 
          1.0587143268e-251 0.0000000000e+00 -6.3765258329e-253 
          1.0907135058e-251 0.0000000000e+00 -6.4227750528e-253 
          1.1229385001e-251 0.0000000000e+00 -6.4668935957e-253 
          1.1553793199e-251 0.0000000000e+00 -6.5090700746e-253 
          1.1880259750e-251 0.0000000000e+00 -6.5492485560e-253 
          1.2208683714e-251 0.0000000000e+00 -6.5873932684e-253 
          1.2523735663e-251 0.0000000000e+00 -6.6220883132e-253 
          1.2839747068e-251 0.0000000000e+00 -6.6554507093e-253 
          1.3149959076e-251 0.0000000000e+00 -6.6869315276e-253 
          1.3461613389e-251 0.0000000000e+00 -6.7173027809e-253 
          1.3754416804e-251 0.0000000000e+00 -6.7448116686e-253 
          1.4049081894e-251 0.0000000000e+00 -6.7718704866e-253 
          1.4302783873e-251 0.0000000000e+00 -6.7950100555e-253 
          1.4557339163e-251 0.0000000000e+00 -6.8175193967e-253 
          1.4812737359e-251 0.0000000000e+00 -6.8400105270e-253 
          1.5069652783e-251 0.0000000000e+00 -6.8621875190e-253 
          1.5370087092e-251 0.0000000000e+00 -6.8876106066e-253 
          1.5671624461e-251 0.0000000000e+00 -6.9125712670e-253 
          1.5996434339e-251 0.0000000000e+00 -6.9383897916e-253 
          1.6322432609e-251 0.0000000000e+00 -6.9634675221e-253 
          1.6660085865e-251 0.0000000000e+00 -6.9891618223e-253 
          1.6998992032e-251 0.0000000000e+00 -7.0153640769e-253 
          1.7345513483e-251 0.0000000000e+00 -7.0423201332e-253 
          1.7692663470e-251 0.0000000000e+00 -7.0694478925e-253 
          1.8043984278e-251 0.0000000000e+00 -7.0967330461e-253 
          1.8396670384e-251 0.0000000000e+00 -7.1244923339e-253 
          1.8750744682e-251 0.0000000000e+00 -7.1527563242e-253 
          1.9106223822e-251 0.0000000000e+00 -7.1811503925e-253 
          1.9465274382e-251 0.0000000000e+00 -7.2095802322e-253 
          1.9825003429e-251 0.0000000000e+00 -7.2372452135e-253 
          2.0186064475e-251 0.0000000000e+00 -7.2628562637e-253 
          2.0548349293e-251 0.0000000000e+00 -7.2862501351e-253 
          2.0910276138e-251 0.0000000000e+00 -7.3072167516e-253 
          2.1273199900e-251 0.0000000000e+00 -7.3265196710e-253 
          2.1634100689e-251 0.0000000000e+00 -7.3440210106e-253 
          2.1995827734e-251 0.0000000000e+00 -7.3600492173e-253 
          2.2352395366e-251 0.0000000000e+00 -7.3738797567e-253 
          2.2710313728e-251 0.0000000000e+00 -7.3850131296e-253 
          2.3056129636e-251 0.0000000000e+00 -7.3930864184e-253 
          2.3403017387e-251 0.0000000000e+00 -7.3992566666e-253 
          2.3727186240e-251 0.0000000000e+00 -7.4027876329e-253 
          2.4050736964e-251 0.0000000000e+00 -7.4047244938e-253 
          2.4328441969e-251 0.0000000000e+00 -7.4062021795e-253 
          2.4606196924e-251 0.0000000000e+00 -7.4074099534e-253 
          2.4883991423e-251 0.0000000000e+00 -7.4082418020e-253 
          2.5161808815e-251 0.0000000000e+00 -7.4087549595e-253 
          2.5439642858e-251 0.0000000000e+00 -7.4089910510e-253 
          2.5717478982e-251 0.0000000000e+00 -7.4089078011e-253 
        </DataArray>
      </PointData>
      <CellData>
        <DataArray type="Int32" Name="ElementTag" format="ascii">
          200001
          200002
          200006
          200010
          200016
          200024
          200035
          200045
          200058
          200073
          200089
          200105
          200125
          200147
          200169
          200193
          200217
          200247
          200275
          200308
          200339
          200375
          200413
          200454
          200500
          200546
          200595
          200644
          200696
          200747
          200795
          200843
          200899
          200952
          201005
          201060
          201114
          201172
          201232
          201292
          201358
          201419
          201485
          201555
          201625
          201698
          201771
          201841
          201913
          201988
          202054
          202128
          202200
          202274
          202350
          202427
          202513
          202590
          202672
          202751
          202835
          202919
          203002
          203091
          203182
          203277
          203371
          203469
          203569
          203675
          203782
          203893
          204003
          204129
          204246
          204372
          204502
          204630
          204773
          204917
          205057
          205206
          205349
          205500
          205647
          205796
          205950
          206103
          206247
          206395
          206551
          206718
          206880
          207039
          207201
          207390
          207602
          207811
          232557
          232559
          232561
          232564
          232566
          232572
          232575
          232577
          232583
          232585
          232589
          232596
          232602
          232605
          232610
          232618
          232631
          232637
          232640
          232650
          232660
          232670
          232677
          232684
          232692
          232708
          232714
          232723
          232737
          232746
          232757
          232768
          232782
          232792
          232803
          232816
          232828
          232842
          232853
          232866
          232881
          232894
          232910
          232923
          232936
          232948
          232961
          232975
          232989
          233003
          233016
          233029
          233043
          233057
          233068
          233082
          233095
          233109
          233120
          233133
          233145
          233157
          233171
          233180
          233194
          233204
          233214
          233226
          233232
          233242
          233249
          233259
          233268
          233279
          233289
          233300
          233310
          233320
          233333
          233343
          233353
          233363
          233371
          233379
          233388
          233396
          233404
          233411
          233418
          233425
          233431
          233437
          233442
          233447
          233452
          233455
          233458