<VTKFile type="UnstructuredGrid" version="1.0" byte_order="LittleEndian" compressor="vtkZLibDataCompressor">
  <UnstructuredGrid>
    <Piece NumberOfPoints="924" NumberOfCells="462">
      <Points>
        <DataArray type="Float32" Name="Points" NumberOfComponents="3" format="ascii">
          -5.0000000000e+01 -3.0000000000e+01 0.0000000000e+00 
          -5.0000000000e+01 -2.9500000000e+01 0.0000000000e+00 
          -5.0000000000e+01 -2.9000000000e+01 0.0000000000e+00 
          -5.0000000000e+01 -2.8500000000e+01 0.0000000000e+00 
          -5.0000000000e+01 -2.8000000000e+01 0.0000000000e+00 
          -5.0000000000e+01 -2.7500000000e+01 0.0000000000e+00 
          -5.0000000000e+01 -2.7000000000e+01 0.0000000000e+00 
          -5.0000000000e+01 -2.6500000000e+01 0.0000000000e+00 
          -5.0000000000e+01 -2.6000000000e+01 0.0000000000e+00 
          -5.0000000000e+01 -2.5500000000e+01 0.0000000000e+00 
          -5.0000000000e+01 -2.5000000000e+01 0.0000000000e+00 
          -5.0000000000e+01 -2.4500000000e+01 0.0000000000e+00 
          -5.0000000000e+01 -2.4000000000e+01 0.0000000000e+00 
          -5.0000000000e+01 -2.3500000000e+01 0.0000000000e+00 
          -5.0000000000e+01 -2.3000000000e+01 0.0000000000e+00 
          -5.0000000000e+01 -2.2500000000e+01 0.0000000000e+00 
          -5.0000000000e+01 -2.2000000000e+01 0.0000000000e+00 
          -5.0000000000e+01 -2.1500000000e+01 0.0000000000e+00 
          -5.0000000000e+01 -2.1000000000e+01 0.0000000000e+00 
          -5.0000000000e+01 -2.0500000000e+01 0.0000000000e+00 
          -5.0000000000e+01 -2.0000000000e+01 0.0000000000e+00 
          -5.0000000000e+01 -1.9500000000e+01 0.0000000000e+00 
          -5.0000000000e+01 -1.9000000000e+01 0.0000000000e+00 
          -5.0000000000e+01 -1.8500000000e+01 0.0000000000e+00 
          -5.0000000000e+01 -1.8000000000e+01 0.0000000000e+00 
          -5.0000000000e+01 -1.7500000000e+01 0.0000000000e+00 
          -5.0000000000e+01 -1.7000000000e+01 0.0000000000e+00 
          -5.0000000000e+01 -1.6500000000e+01 0.0000000000e+00 
          -5.0000000000e+01 -1.6000000000e+01 0.0000000000e+00 
          -5.0000000000e+01 -1.5500000000e+01 0.0000000000e+00 
          -5.0000000000e+01 -1.5000000000e+01 0.0000000000e+00 
          -5.0000000000e+01 -1.4500000000e+01 0.0000000000e+00 
          -5.0000000000e+01 -1.4000000000e+01 0.0000000000e+00 
          -5.0000000000e+01 -1.3500000000e+01 0.0000000000e+00 
          -5.0000000000e+01 -1.3000000000e+01 0.0000000000e+00 
          -5.0000000000e+01 -1.2500000000e+01 0.0000000000e+00 
          -5.0000000000e+01 -1.2000000000e+01 0.0000000000e+00 
          -5.0000000000e+01 -1.1500000000e+01 0.0000000000e+00 
          -5.0000000000e+01 -1.1000000000e+01 0.0000000000e+00 
          -5.0000000000e+01 -1.0500000000e+01 0.0000000000e+00 
          -5.0000000000e+01 -1.0000000000e+01 0.0000000000e+00 
          -5.0000000000e+01 -9.5000000000e+00 0.0000000000e+00 
          -5.0000000000e+01 -9.0000000000e+00 0.0000000000e+00 
          -5.0000000000e+01 -8.5000000000e+00 0.0000000000e+00 
          -5.0000000000e+01 -8.0000000000e+00 0.0000000000e+00 
          -5.0000000000e+01 -7.5000000000e+00 0.0000000000e+00 
          -5.0000000000e+01 -7.0000000000e+00 0.0000000000e+00 
          -5.0000000000e+01 -6.5000000000e+00 0.0000000000e+00 
          -5.0000000000e+01 -6.0000000000e+00 0.0000000000e+00 
          -5.0000000000e+01 -5.5000000000e+00 0.0000000000e+00 
          -5.0000000000e+01 -5.0000000000e+00 0.0000000000e+00 
          -5.0000000000e+01 -4.5000000000e+00 0.0000000000e+00 
          -5.0000000000e+01 -4.0000000000e+00 0.0000000000e+00 
          -5.0000000000e+01 -3.5000000000e+00 0.0000000000e+00 
          -5.0000000000e+01 -3.0000000000e+00 0.0000000000e+00 
          -5.0000000000e+01 -2.5000000000e+00 0.0000000000e+00 
          -5.0000000000e+01 -2.0000000000e+00 0.0000000000e+00 
          -5.0000000000e+01 -1.5000000000e+00 0.0000000000e+00 
          -5.0000000000e+01 -1.0000000000e+00 0.0000000000e+00 
          -5.0000000000e+01 -5.0000000000e-01 0.0000000000e+00 
          -5.0000000000e+01 0.0000000000e+00 0.0000000000e+00 
          -5.0000000000e+01 5.0000000000e-01 0.0000000000e+00 
          -5.0000000000e+01 1.0000000000e+00 0.0000000000e+00 
          -5.0000000000e+01 1.5000000000e+00 0.0000000000e+00 
          -5.0000000000e+01 2.0000000000e+00 0.0000000000e+00 
          -5.0000000000e+01 2.5000000000e+00 0.0000000000e+00 
          -5.0000000000e+01 3.0000000000e+00 0.0000000000e+00 
          -5.0000000000e+01 3.5000000000e+00 0.0000000000e+00 
          -5.0000000000e+01 4.0000000000e+00 0.0000000000e+00 
          -5.0000000000e+01 4.5000000000e+00 0.0000000000e+00 
          -5.0000000000e+01 5.0000000000e+00 0.0000000000e+00 
          -5.0000000000e+01 5.5000000000e+00 0.0000000000e+00 
          -5.0000000000e+01 6.0000000000e+00 0.0000000000e+00 
          -5.0000000000e+01 6.5000000000e+00 0.0000000000e+00 
          -5.0000000000e+01 7.0000000000e+00 0.0000000000e+00 
          -5.0000000000e+01 7.5000000000e+00 0.0000000000e+00 
          -5.0000000000e+01 8.0000000000e+00 0.0000000000e+00 
          -5.0000000000e+01 8.5000000000e+00 0.0000000000e+00 
          -5.0000000000e+01 9.0000000000e+00 0.0000000000e+00 
          -5.0000000000e+01 9.5000000000e+00 0.0000000000e+00 
          -5.0000000000e+01 1.0000000000e+01 0.0000000000e+00 
          -5.0000000000e+01 1.0500000000e+01 0.0000000000e+00 
          -5.0000000000e+01 1.1000000000e+01 0.0000000000e+00 
          -5.0000000000e+01 1.1500000000e+01 0.0000000000e+00 
          -5.0000000000e+01 1.2000000000e+01 0.0000000000e+00 
          -5.0000000000e+01 1.2500000000e+01 0.0000000000e+00 
          -5.0000000000e+01 1.3000000000e+01 0.0000000000e+00 
          -5.0000000000e+01 1.3500000000e+01 0.0000000000e+00 
          -5.0000000000e+01 1.4000000000e+01 0.0000000000e+00 
          -5.0000000000e+01 1.4500000000e+01 0.0000000000e+00 
          -5.0000000000e+01 1.5000000000e+01 0.0000000000e+00 
          -5.0000000000e+01 1.5500000000e+01 0.0000000000e+00 
          -5.0000000000e+01 1.6000000000e+01 0.0000000000e+00 
          -5.0000000000e+01 1.6500000000e+01 0.0000000000e+00 
          -5.0000000000e+01 1.7000000000e+01 0.0000000000e+00 
          -5.0000000000e+01 1.7500000000e+01 0.0000000000e+00 
          -5.0000000000e+01 1.8000000000e+01 0.0000000000e+00 
          -5.0000000000e+01 1.8500000000e+01 0.0000000000e+00 
          -5.0000000000e+01 1.9000000000e+01 0.0000000000e+00 
          5.0000000000e+01 -3.0000000000e+01 0.0000000000e+00 
          5.0000000000e+01 -2.9500000000e+01 0.0000000000e+00 
          5.0000000000e+01 -2.9000000000e+01 0.0000000000e+00 
          5.0000000000e+01 -2.8500000000e+01 0.0000000000e+00 
          5.0000000000e+01 -2.8000000000e+01 0.0000000000e+00 
          5.0000000000e+01 -2.7500000000e+01 0.0000000000e+00 
          5.0000000000e+01 -2.7000000000e+01 0.0000000000e+00 
          5.0000000000e+01 -2.6500000000e+01 0.0000000000e+00 
          5.0000000000e+01 -2.6000000000e+01 0.0000000000e+00 
          5.0000000000e+01 -2.5500000000e+01 0.0000000000e+00 
          5.0000000000e+01 -2.5000000000e+01 0.0000000000e+00 
          5.0000000000e+01 -2.4500000000e+01 0.0000000000e+00 
          5.0000000000e+01 -2.4000000000e+01 0.0000000000e+00 
          5.0000000000e+01 -2.3500000000e+01 0.0000000000e+00 
          5.0000000000e+01 -2.3000000000e+01 0.0000000000e+00 
          5.0000000000e+01 -2.2500000000e+01 0.0000000000e+00 
          5.0000000000e+01 -2.2000000000e+01 0.0000000000e+00 
          5.0000000000e+01 -2.1500000000e+01 0.0000000000e+00 
          5.0000000000e+01 -2.1000000000e+01 0.0000000000e+00 
          5.0000000000e+01 -2.0500000000e+01 0.0000000000e+00 
          5.0000000000e+01 -2.0000000000e+01 0.0000000000e+00 
          5.0000000000e+01 -1.9500000000e+01 0.0000000000e+00 
          5.0000000000e+01 -1.9000000000e+01 0.0000000000e+00 
          5.0000000000e+01 -1.8500000000e+01 0.0000000000e+00 
          5.0000000000e+01 -1.8000000000e+01 0.0000000000e+00 
          5.0000000000e+01 -1.7500000000e+01 0.0000000000e+00 
          5.0000000000e+01 -1.7000000000e+01 0.0000000000e+00 
          5.0000000000e+01 -1.6500000000e+01 0.0000000000e+00 
          5.0000000000e+01 -1.6000000000e+01 0.0000000000e+00 
          5.0000000000e+01 -1.5500000000e+01 0.0000000000e+00 
          5.0000000000e+01 -1.5000000000e+01 0.0000000000e+00 
          5.0000000000e+01 -1.4500000000e+01 0.0000000000e+00 
          5.0000000000e+01 -1.4000000000e+01 0.0000000000e+00 
          5.0000000000e+01 -1.3500000000e+01 0.0000000000e+00 
          5.0000000000e+01 -1.3000000000e+01 0.0000000000e+00 
          5.0000000000e+01 -1.2500000000e+01 0.0000000000e+00 
          5.0000000000e+01 -1.2000000000e+01 0.0000000000e+00 
          5.0000000000e+01 -1.1500000000e+01 0.0000000000e+00 
          5.0000000000e+01 -1.1000000000e+01 0.0000000000e+00 
          5.0000000000e+01 -1.0500000000e+01 0.0000000000e+00 
          5.0000000000e+01 -1.0000000000e+01 0.0000000000e+00 
          5.0000000000e+01 -9.5000000000e+00 0.0000000000e+00 
          5.0000000000e+01 -9.0000000000e+00 0.0000000000e+00 
          5.0000000000e+01 -8.5000000000e+00 0.0000000000e+00 
          5.0000000000e+01 -8.0000000000e+00 0.0000000000e+00 
          5.0000000000e+01 -7.5000000000e+00 0.0000000000e+00 
          5.0000000000e+01 -7.0000000000e+00 0.0000000000e+00 
          5.0000000000e+01 -6.5000000000e+00 0.0000000000e+00 
          5.0000000000e+01 -6.0000000000e+00 0.0000000000e+00 
          5.0000000000e+01 -5.5000000000e+00 0.0000000000e+00 
          5.0000000000e+01 -5.0000000000e+00 0.0000000000e+00 
          5.0000000000e+01 -4.5000000000e+00 0.0000000000e+00 
          5.0000000000e+01 -4.0000000000e+00 0.0000000000e+00 
          5.0000000000e+01 -3.5000000000e+00 0.0000000000e+00 
[...]
      <PointData>
        <DataArray type="Int32" Name="NodeTag" format="ascii">
          1
          2
          6
          10
          16
          24
          35
          45
          58
          73
          89
          105
          125
          147
          169
          193
          217
          247
          275
          308
          339
          375
          413
          454
          500
          546
          595
          644
          696
          747
          795
          843
          899
          952
          1005
          1060
          1114
          1172
          1232
          1292
          1358
          1419
          1485
          1555
          1625
          1698
          1771
          1841
          1913
          1988
          2054
          2128
          2200
          2274
          2350
          2427
          2513
          2590
          2672
          2751
          2835
          2919
          3002
          3091
          3182
          3277
          3371
          3469
          3569
          3675
          3782
          3893
          4003
          4129
          4246
          4372
          4502
          4630
          4773
          4917
          5057
          5206
          5349
          5500
          5647
          5796
          5950
          6103
          6247
          6395
          6551
          6718
          6880
          7039
          7201
          7390
          7602
          7811
          8052
          32557
          32559
          32561
          32564
          32566
          32572
          32575
          32577
          32583
          32585
          32589
          32596
          32602
          32605
          32610
          32618
          32631
          32637
          32640
          32650
          32660
          32670
          32677
          32684
          32692
          32708
          32714
          32723
          32737
          32746
          32757
          32768
          32782
          32792
          32803
          32816
          32828
          32842
          32853
          32866
          32881
          32894
          32910
          32923
          32936
          32948
          32961
          32975
          32989
          33003
          33016
          33029
          33043
          33057
          33068
          33082
          33095
          33109
          33120
          33133
          33145
          33157
          33171
          33180
          33194
          33204
          33214
          33226
          33232
          33242
          33249
          33259
          33268
          33279
          33289
          33300
          33310
          33320
          33333
          33343
          33353
          33363
          33371
          33379
          33388
          33396
          33404
          33411
          33418
          33425
          33431
          33437
          33442
          33447
          33452
          33455
          33458
          33461
          33463
          33465
          33467
          33468
          33469
          100001
          100002
          100006
          100010
          100016
          100024
          100035
          100045
          100058
          100073
          100089
          100105
          100125
          100147
          100169
          100193
          100217
          100247
          100275
          100308
          100339
          100375
          100413
          100454
          100500
          100546
          100595
          100644
          100696
          100747
          100795
          100843
          100899
          100952
          101005
          101060
          101114
          101172
          101232
          101292
          101358
          101419
          101485
          101555
          101625
          101698
          101771
          101841
          101913
          101988
          102054
          102128
          102200
          102274
          102350
          102427
          102513
          102590
          102672
          102751
          102835
          102919
          103002
          103091
          103182
          103277
          103371
          103469
          103569
          103675
          103782
          103893
          104003
          104129
          104246
          104372
          104502
          104630
          104773
          104917
          105057
          105206
          105349
          105500
          105647
          105796
          105950
          106103
          106247
          106395
          106551
          106718
          106880
          107039
          107201
          107390
          107602
          107811
          108052
          110374
          110426
          110478
          110496
          110534
          110587
          110622
          110641
          110698
          110721
          110755
          110822
          110836
          110881
          110933
          110937
          110996
          111042
          111076
          111138
          111155
          111193
          111246
          111260
          111291
          111361
          111374
          111421
          111479
          111485
          111537
          111593
          111607
          111676
          111711
          111734
          111773
          111817
          111840
          111893
          111907
          111977
          111978
          112049
          112063
          112115
          112142
          112184
          112227
          112256
          112319
          112328
          112396
          112402
          112478
          112501
          112551
          112591
          112618
          112696
          112698
          112773
          112791
          112848
          112897
          112929
          113010
          113015
          113091
          113122
          113179
          113250
          113267
          113351
          113360
          113444
          113481
          113544
          113621
          113643
          113734
          113744
          113837
          113864
          113931
          113976
          114039
          114079
          114145
          114208
          114268
          114327
          114373
          114461
          114490
          114593
          114599
          114703
          114754
          114827
          114929
          114936
          115055
          115098
          115162
          115252
          115264
          115388
          115426
          115487
          115599
          115611
          115717
          115764
          115834
          115924
          115935
          116050
          116090
          116152
          116249
          116267
          116372
          116416
          116485
          116575
          116601
          116699
          116729
          116809
          116887
          116913
          117029
          117056
          117138
          117213
          117256
          117364
          117382
          117465
          117526
          117573
          117677
          117685
          117798
          117845
          117906
          117992
          118011
          118109
          118144
          118217
          118282
          118318
          118427
          118508
          118565
          118692
          118705
          118837
          118863
          118966
          119047
          119099
          119227
          119229
          119352
          119401
          119477
          119568
          119586
          119715
          119754
          119830
          119920
          119937
          120039
          120082
          120141
          120255
          120307
          120354
          120450
          120519
          120550
          120594
          120631
          120663
          120722
          120733
          120811
          120814
          120893
          120902
          120971
          120985
          121051
          121065
          121120
          121147
          121192
          121218
          121269
          121285
          121348
          121365
          121423
          121435
          121499
          121500
          121564
          121574
          121618
          121633
          121675
          121684
          121728
          121743
          121772
          121786
          121823
          121828
          121871
          121890
          121919
          121924
          121959
          121967
          121998
          122006
          122030
          122034
          122062
          122066
          122090
          122093
          122119
          122121
          122137
          122139
          122159
          122163
          122178
          122182
          122187
          122195
          122198
          122209
          122210
          122217
          122218
          122222
          122224
          122231
          122233
          122235
          122237
          122241
          122244
          122246
          132557
          132559
          132561
          132564
          132566
          132572
          132575
          132577
          132583
          132585
          132589
          132596
          132602
          132605
          132610
          132618
          132631
          132637
          132640
          132650
          132660
          132670
          132677
          132684
          132692
          132708
          132714
          132723
          132737
          132746
          132757
          132768
          132782
          132792
          132803
          132816
          132828
          132842
          132853
          132866
          132881
          132894
          132910
          132923
          132936
          132948
          132961
          132975
          132989
          133003
          133016
          133029
          133043
          133057
          133068
          133082
          133095
          133109
          133120
          133133
          133145
          133157
          133171
          133180
          133194
          133204
          133214
          133226
          133232
          133242
          133249
          133259
          133268
          133279
          133289
          133300
          133310
          133320
          133333
          133343
          133353
          133363
          133371
          133379
          133388
          133396
          133404
          133411
          133418
          133425
          133431
          133437
          133442
          133447
          133452
          133455
          133458
          133461
          133463
          133465
          133467
          133468
          133469
          510374
          510426
          510478
          510496
          510534
          510587
          510622
          510641
          510698
          510721
          510755
          510822
          510836
          510881
          510933
          510937
          510996
          511042
          511076
          511138
          511155
          511193
          511246
          511260
          511291
          511361
          511374
          511421
          511479
          511485
          511537
          511593
          511607
          511676
          511711
          511734
          511773
          511817
          511840
          511893
          511907
          511977
          511978
          512049
          512063
          512115
          512142
          512184
          512227
          512256
          512319
          512328
          512396
          512402
          512478
          512501
          512551
          512591
          512618
          512696
          512698
          512773
          512791
          512848
          512897
          512929
          513010
          513015
          513091
          513122
          513179
          513250
          513267
          513351
          513360
          513444
          513481
          513544
          513621
          513643
          513734
          513744
          513837
          513864
          513931
          513976
          514039
          514079
          514145
          514208
          514268
          514327
          514373
          514461
          514490
          514593
          514599
          514703
          514754
          514827
          514929
          514936
          515055
          515098
          515162
          515252
          515264
          515388
          515426
          515487
          515599
          515611
          515717
          515764
          515834
          515924
          515935
          516050
          516090
          516152
          516249
          516267
          516372
          516416
          516485
          516575
          516601
          516699
          516729
          516809
          516887
          516913
          517029
          517056
          517138
          517213
          517256
          517364
          517382
          517465
          517526
          517573
          517677
          517685
          517798
          517845
          517906
          517992
          518011
          518109
          518144
          518217
          518282
          518318
          518427
          518508
          518565
          518692
          518705
          518837
          518863
          518966
          519047
          519099
          519227
          519229
          519352
          519401
          519477
          519568
          519586
          519715
          519754
          519830
          519920
          519937
          520039
          520082
          520141
          520255
          520307
          520354
          520450
          520519
          520550
          520594
          520631
          520663
          520722
          520733
          520811
          520814
          520893
          520902
          520971
          520985
          521051
          521065
          521120
          521147
          521192
          521218
          521269
          521285
          521348
          521365
          521423
          521435
          521499
          521500
          521564
          521574
          521618
          521633
          521675
          521684
          521728
          521743
          521772
          521786
          521823
          521828
          521871
          521890
          521919
          521924
          521959
          521967
          521998
          522006
          522030
          522034
          522062
          522066
          522090
          522093
          522119
          522121
          522137
          522139
          522159
          522163
          522178
          522182
          522187
          522195
          522198
          522209
          522210
          522217
          522218
          522222
          522224
          522231
          522233
          522235
          522237
          522241
          522244
          522246
        </DataArray>
        <DataArray type="Float32" Name="Displacement" NumberOfComponents="3" format="ascii">
          0.0000000000e+00 0.0000000000e+00 0.0000000000e+00 
          3.3425346510e-06 -8.6598184944e-04 0.0000000000e+00 
          6.8700329299e-06 -1.7230395901e-03 0.0000000000e+00 
          1.0509398383e-05 -2.5810939874e-03 0.0000000000e+00 
          1.4388049262e-05 -3.4300063711e-03 0.0000000000e+00 
          1.8479572422e-05 -4.2796019560e-03 0.0000000000e+00 
          2.3236595459e-05 -5.1189190406e-03 0.0000000000e+00 
          2.6869377767e-05 -5.9683904585e-03 0.0000000000e+00 
          3.0504528232e-05 -6.8072448933e-03 0.0000000000e+00 
          3.6417523643e-05 -7.6389480540e-03 0.0000000000e+00 
          4.2434569094e-05 -8.4606687751e-03 0.0000000000e+00 
          4.6839734064e-05 -9.2947022574e-03 0.0000000000e+00 
          5.1122612489e-05 -1.0117424472e-02 0.0000000000e+00 
          5.8319838555e-05 -1.0932127969e-02 0.0000000000e+00 
          6.5840251972e-05 -1.1736238673e-02 0.0000000000e+00 
          7.0936270204e-05 -1.2556401310e-02 0.0000000000e+00 
          7.5408868060e-05 -1.3361074762e-02 0.0000000000e+00 
          8.4364761029e-05 -1.4158153174e-02 0.0000000000e+00 
          9.2439919403e-05 -1.4946820652e-02 0.0000000000e+00 
          1.0030858505e-04 -1.5736452384e-02 0.0000000000e+00 
          1.0838006740e-04 -1.6516416429e-02 0.0000000000e+00 
          1.1670487214e-04 -1.7297487754e-02 0.0000000000e+00 
          1.2526949640e-04 -1.8068492016e-02 0.0000000000e+00 
          1.3411257000e-04 -1.8840554293e-02 0.0000000000e+00 
          1.4318701479e-04 -1.9602314466e-02 0.0000000000e+00 
          1.5256151591e-04 -2.0365101093e-02 0.0000000000e+00 
          1.6213266922e-04 -2.1117361521e-02 0.0000000000e+00 
          1.7208519834e-04 -2.1870636732e-02 0.0000000000e+00 
          1.8223320465e-04 -2.2613307420e-02 0.0000000000e+00 
          1.9294271367e-04 -2.3356881652e-02 0.0000000000e+00 
          2.0384783024e-04 -2.4089585869e-02 0.0000000000e+00 
          2.1529244447e-04 -2.4823352354e-02 0.0000000000e+00 
          2.2692031010e-04 -2.5546229859e-02 0.0000000000e+00 
          2.3903462514e-04 -2.6270268881e-02 0.0000000000e+00 
          2.5113261890e-04 -2.6983234455e-02 0.0000000000e+00 
          2.6382067376e-04 -2.7696864037e-02 0.0000000000e+00 
          2.7667147187e-04 -2.8398730522e-02 0.0000000000e+00 
          2.9112669406e-04 -2.9122712264e-02 0.0000000000e+00 
          3.0700846286e-04 -2.9839754922e-02 0.0000000000e+00 
          3.2315577734e-04 -3.0534173355e-02 0.0000000000e+00 
          3.3953909915e-04 -3.1217096510e-02 0.0000000000e+00 
          3.5675992035e-04 -3.1901340385e-02 0.0000000000e+00 
          3.7456341911e-04 -3.2574550403e-02 0.0000000000e+00 
          3.9343313959e-04 -3.3249472609e-02 0.0000000000e+00 
          4.1307431039e-04 -3.3913260611e-02 0.0000000000e+00 
          4.3389692250e-04 -3.4578981986e-02 0.0000000000e+00 
          4.5570348056e-04 -3.5233331628e-02 0.0000000000e+00 
          4.7882791107e-04 -3.5889916947e-02 0.0000000000e+00 
          5.0319862125e-04 -3.6534891387e-02 0.0000000000e+00 
          5.2913831317e-04 -3.7182444651e-02 0.0000000000e+00 
          5.5656897530e-04 -3.7818257215e-02 0.0000000000e+00 
          5.8592000261e-04 -3.8457234295e-02 0.0000000000e+00 
          6.1710255064e-04 -3.9084620583e-02 0.0000000000e+00 
          6.5075710622e-04 -3.9716196437e-02 0.0000000000e+00 
          6.8674182780e-04 -4.0336086326e-02 0.0000000000e+00 
          7.2592578847e-04 -4.0963002762e-02 0.0000000000e+00 
          7.6813425228e-04 -4.1580382806e-02 0.0000000000e+00 
          8.1479633514e-04 -4.2210079068e-02 0.0000000000e+00 
          8.6540819383e-04 -4.2838590996e-02 0.0000000000e+00 
          9.2176495007e-04 -4.3508389830e-02 0.0000000000e+00 
          9.7752731190e-04 -4.4268498851e-02 0.0000000000e+00 
          1.9172660866e-04 -4.4916443902e-02 0.0000000000e+00 
          -7.6853205548e-10 -4.5437820783e-02 0.0000000000e+00 
          -5.3546029155e-09 -4.5936156076e-02 0.0000000000e+00 
          -3.3445511877e-09 -4.6421908817e-02 0.0000000000e+00 
          -6.7583667969e-09 -4.6924095041e-02 0.0000000000e+00 
          -3.7374917485e-09 -4.7418803798e-02 0.0000000000e+00 
          -7.5514514842e-09 -4.7897532330e-02 0.0000000000e+00 
          -3.5851441457e-09 -4.8368143685e-02 0.0000000000e+00 
          -6.6685748278e-09 -4.8861922769e-02 0.0000000000e+00 